version 2
run Multitask30-18-20150106-11:37:59-2704
attr configname Multitask30
attr datetime 20150106-11:37:59
attr experiment Multitask30
attr inifile omnetpp.ini
attr iterationvars ""
attr iterationvars2 $repetition=18
attr measurement ""
attr network Multitask
attr processid 2704
attr repetition 18
attr replication #18
attr resultdir results
attr runnumber 18
attr seedset 18

vector 8  Multitask.allocateQ2  queueLength:vector  ETV
attr interpolationmode  sample-hold
attr title  "queue length, vector"
vector 11  Multitask.queue3  queueLength:vector  ETV
attr interpolationmode  sample-hold
attr title  "queue length, vector"
vector 13  Multitask.queue3  busy:vector  ETV
attr interpolationmode  sample-hold
attr title  "server busy state, vector"
vector 15  Multitask.queue4  queueLength:vector  ETV
attr interpolationmode  sample-hold
attr title  "queue length, vector"
vector 17  Multitask.queue4  busy:vector  ETV
attr interpolationmode  sample-hold
attr title  "server busy state, vector"
vector 19  Multitask.queue5  queueLength:vector  ETV
attr interpolationmode  sample-hold
attr title  "queue length, vector"
vector 21  Multitask.queue5  busy:vector  ETV
attr interpolationmode  sample-hold
attr title  "server busy state, vector"
vector 23  Multitask.queue6  queueLength:vector  ETV
attr interpolationmode  sample-hold
attr title  "queue length, vector"
vector 25  Multitask.queue6  busy:vector  ETV
attr interpolationmode  sample-hold
attr title  "server busy state, vector"
vector 27  Multitask.queue7  queueLength:vector  ETV
attr interpolationmode  sample-hold
attr title  "queue length, vector"
vector 29  Multitask.queue7  busy:vector  ETV
attr interpolationmode  sample-hold
attr title  "server busy state, vector"
vector 30  Multitask.resourceCPU  amount:vector  ETV
attr interpolationmode  sample-hold
attr title  "available resource, vector"
vector 12  Multitask.queue3  queueingTime:vector  ETV
attr interpolationmode  none
attr title  "queueing time at dequeue, vector"
attr unit  s
vector 24  Multitask.queue6  queueingTime:vector  ETV
attr interpolationmode  none
attr title  "queueing time at dequeue, vector"
attr unit  s
vector 20  Multitask.queue5  queueingTime:vector  ETV
attr interpolationmode  none
attr title  "queueing time at dequeue, vector"
attr unit  s
vector 28  Multitask.queue7  queueingTime:vector  ETV
attr interpolationmode  none
attr title  "queueing time at dequeue, vector"
attr unit  s
vector 16  Multitask.queue4  queueingTime:vector  ETV
attr interpolationmode  none
attr title  "queueing time at dequeue, vector"
attr unit  s
vector 9  Multitask.allocateQ2  queueingTime:vector  ETV
attr interpolationmode  none
attr title  "queueing time at dequeue, vector"
attr unit  s
vector 0  Multitask.sink  lifeTime:vector  ETV
attr interpolationmode  none
attr title  "lifetime of arrived jobs, vector"
attr unit  s
vector 1  Multitask.sink  totalQueueingTime:vector  ETV
attr interpolationmode  none
attr title  "the total time spent in queues by arrived jobs, vector"
attr unit  s
vector 4  Multitask.sink  queuesVisited:vector  ETV
attr interpolationmode  none
attr title  "the total number of queues visited by arrived jobs, vector"
vector 3  Multitask.sink  totalServiceTime:vector  ETV
attr interpolationmode  none
attr title  "the total time spent  by arrived jobs, vector"
attr unit  s
vector 2  Multitask.sink  totalDelayTime:vector  ETV
attr interpolationmode  none
attr title  "the total time spent in delay nodes by arrived jobs, vector"
attr unit  s
vector 5  Multitask.sink  delaysVisited:vector  ETV
attr interpolationmode  none
attr title  "the total number of delays visited by arrived jobs, vector"
vector 6  Multitask.sink  generation:vector  ETV
attr interpolationmode  none
attr title  "the generation of the arrived jobs, vector"
0	13119	1436.52158084437	1436.5215808444
0	13155	1437.917648597693	1437.9176485977
0	13168	1438.496962805776	1438.4969628058
0	13187	1439.118546107769	1439.1185461078
0	13208	1439.646588504083	1439.6465885041
0	13214	1439.826424599803	1439.8264245998
0	13225	1440.146741326025	1440.146741326
0	13281	1447.774715948579	1447.7747159486
0	13302	1450.868897141106	1450.8688971411
0	13363	1457.864257450549	1457.8642574505
0	13394	1464.351067460741	1464.3510674607
0	13405	1464.565353029077	1464.5653530291
0	13421	1465.3604448399	1465.3604448399
0	13457	1476.089971813984	1476.089971814
0	13463	1476.16397740043	1476.1639774004
0	13469	1476.267364442921	1476.2673644429
0	13475	1476.305675309251	1476.3056753093
0	13516	1477.896848268705	1477.8968482687
0	13522	1477.948448365027	1477.948448365
0	13528	1478.076155320061	1478.0761553201
0	13598	1492.727493200188	1492.7274932002
0	13615	1495.878225834386	1495.8782258344
0	13622	1496.439763773541	1496.4397637735
0	13649	1506.566763613532	1506.5667636135
0	13661	1513.042179028584	1513.0421790286
1	13119	1436.52158084437	1033.1390816733
1	13155	1437.917648597693	1141.3281150333
1	13168	1438.496962805776	1080.6663078719
1	13187	1439.118546107769	1128.9547032871
1	13208	1439.646588504083	1187.2539834451
1	13214	1439.826424599803	1168.4350888405
1	13225	1440.146741326025	1140.1719703543
1	13281	1447.774715948579	1199.1667454441
1	13302	1450.868897141106	1127.7721539368
1	13363	1457.864257450549	1138.8695272542
1	13394	1464.351067460741	1097.1620038398
1	13405	1464.565353029077	1196.5253903838
1	13421	1465.3604448399	1138.7973137181
1	13457	1476.089971813984	1148.9328123801
1	13463	1476.16397740043	1162.1036899989
1	13469	1476.267364442921	1190.0701035417
1	13475	1476.305675309251	1223.9452251079
1	13516	1477.896848268705	1155.3751775938
1	13522	1477.948448365027	1119.9613363848
1	13528	1478.076155320061	1123.9652512364
1	13598	1492.727493200188	1154.1654651464
1	13615	1495.878225834386	1188.5311053135
1	13622	1496.439763773541	1123.4105364289
1	13649	1506.566763613532	1162.1488738161
1	13661	1513.042179028584	1133.9003489074
2	13119	1436.52158084437	0
2	13155	1437.917648597693	0
2	13168	1438.496962805776	0
2	13187	1439.118546107769	0
2	13208	1439.646588504083	0
2	13214	1439.826424599803	0
2	13225	1440.146741326025	0
2	13281	1447.774715948579	0
2	13302	1450.868897141106	0
2	13363	1457.864257450549	0
2	13394	1464.351067460741	0
2	13405	1464.565353029077	0
2	13421	1465.3604448399	0
2	13457	1476.089971813984	0
2	13463	1476.16397740043	0
2	13469	1476.267364442921	0
2	13475	1476.305675309251	0
2	13516	1477.896848268705	0
2	13522	1477.948448365027	0
2	13528	1478.076155320061	0
2	13598	1492.727493200188	0
2	13615	1495.878225834386	0
2	13622	1496.439763773541	0
2	13649	1506.566763613532	0
2	13661	1513.042179028584	0
3	13119	1436.52158084437	133.24502510083
3	13155	1437.917648597693	116.4616853543
3	13168	1438.496962805776	85.80232677721
3	13187	1439.118546107769	97.979298614852
3	13208	1439.646588504083	114.00740657071
3	13214	1439.826424599803	134.9195365731
3	13225	1440.146741326025	80.051282229369
3	13281	1447.774715948579	51.903956948249
3	13302	1450.868897141106	108.67910114437
3	13363	1457.864257450549	131.09302063466
3	13394	1464.351067460741	119.55330256208
3	13405	1464.565353029077	106.98182884003
3	13421	1465.3604448399	158.50312381757
3	13457	1476.089971813984	88.840148562171
3	13463	1476.16397740043	131.50552994195
3	13469	1476.267364442921	73.376064979081
3	13475	1476.305675309251	82.378046259293
3	13516	1477.896848268705	137.15329064459
3	13522	1477.948448365027	134.40192126222
3	13528	1478.076155320061	98.367151848121
3	13598	1492.727493200188	190.35399196488
3	13615	1495.878225834386	166.45054502721
3	13622	1496.439763773541	118.75333356398
3	13649	1506.566763613532	77.932965820716
3	13661	1513.042179028584	186.97355134409
4	13119	1436.52158084437	56
4	13155	1437.917648597693	50
4	13168	1438.496962805776	20
4	13187	1439.118546107769	42
4	13208	1439.646588504083	48
4	13214	1439.826424599803	69
4	13225	1440.146741326025	42
4	13281	1447.774715948579	41
4	13302	1450.868897141106	58
4	13363	1457.864257450549	62
4	13394	1464.351067460741	50
4	13405	1464.565353029077	39
4	13421	1465.3604448399	53
4	13457	1476.089971813984	42
4	13463	1476.16397740043	42
4	13469	1476.267364442921	44
4	13475	1476.305675309251	29
4	13516	1477.896848268705	49
4	13522	1477.948448365027	56
4	13528	1478.076155320061	29
4	13598	1492.727493200188	65
4	13615	1495.878225834386	81
4	13622	1496.439763773541	44
4	13649	1506.566763613532	57
4	13661	1513.042179028584	76
5	13119	1436.52158084437	0
5	13155	1437.917648597693	0
5	13168	1438.496962805776	0
5	13187	1439.118546107769	0
5	13208	1439.646588504083	0
5	13214	1439.826424599803	0
5	13225	1440.146741326025	0
5	13281	1447.774715948579	0
5	13302	1450.868897141106	0
5	13363	1457.864257450549	0
5	13394	1464.351067460741	0
5	13405	1464.565353029077	0
5	13421	1465.3604448399	0
5	13457	1476.089971813984	0
5	13463	1476.16397740043	0
5	13469	1476.267364442921	0
5	13475	1476.305675309251	0
5	13516	1477.896848268705	0
5	13522	1477.948448365027	0
5	13528	1478.076155320061	0
5	13598	1492.727493200188	0
5	13615	1495.878225834386	0
5	13622	1496.439763773541	0
5	13649	1506.566763613532	0
5	13661	1513.042179028584	0
6	13119	1436.52158084437	0
6	13155	1437.917648597693	0
6	13168	1438.496962805776	0
6	13187	1439.118546107769	0
6	13208	1439.646588504083	0
6	13214	1439.826424599803	0
6	13225	1440.146741326025	0
6	13281	1447.774715948579	0
6	13302	1450.868897141106	0
6	13363	1457.864257450549	0
6	13394	1464.351067460741	0
6	13405	1464.565353029077	0
6	13421	1465.3604448399	0
6	13457	1476.089971813984	0
6	13463	1476.16397740043	0
6	13469	1476.267364442921	0
6	13475	1476.305675309251	0
6	13516	1477.896848268705	0
6	13522	1477.948448365027	0
6	13528	1478.076155320061	0
6	13598	1492.727493200188	0
6	13615	1495.878225834386	0
6	13622	1496.439763773541	0
6	13649	1506.566763613532	0
6	13661	1513.042179028584	0
8	0	0	0
8	131	3.905942115315	1
8	156	5.566801859245	2
8	158	5.66735679384	3
8	160	5.707243303593	4
8	162	6.01303035901	5
8	169	7.041138474285	6
8	174	7.08707260904	5
8	186	7.282393539426	4
8	199	7.713457168231	3
8	208	7.877808157383	4
8	213	8.090308926862	5
8	215	8.419747955868	6
8	220	8.509685064606	5
8	237	10.098300549099	6
8	239	10.508919637199	7
8	241	10.969187283398	8
8	243	13.038714134201	9
8	255	13.32467840215	10
8	257	13.868396762099	11
8	259	14.207777033662	12
8	271	18.793612132814	13
8	273	18.946559130736	14
8	275	19.121190277091	15
8	287	21.08676559281	16
8	324	23.900546064662	17
8	329	24.043412440298	16
8	349	26.059525715996	15
8	383	27.286627040979	16
8	396	28.0944102557	15
8	401	28.257136963601	14
8	426	30.433937626264	13
8	448	36.637234898996	14
8	458	37.452950954304	13
8	465	38.638276145241	14
8	467	39.007879115324	15
8	469	39.934163875599	16
8	479	40.72665776916	15
8	491	40.922850686543	16
8	493	41.536841732674	17
8	495	44.141737751925	18
8	497	46.452112617966	19
8	527	49.000961431724	18
8	532	49.031544993104	17
8	549	49.453224448428	18
8	614	56.986841407209	17
8	621	58.195518824489	18
8	648	62.854412924516	19
8	650	65.959070657214	20
8	675	76.892165613728	19
8	705	79.490509002187	18
8	710	79.610236847005	17
8	727	80.404346969029	18
8	732	80.566310047054	17
8	742	80.980806736969	16
8	777	84.611056114202	15
8	782	84.74673334126	14
8	789	84.978452273981	15
8	806	86.769516080482	16
8	816	87.647993934702	15
8	821	87.661024318758	14
8	826	87.697038358591	13
8	833	89.739938544088	14
8	835	90.595044805586	15
8	840	93.71252939642	14
8	845	93.714751656424	13
8	854	93.916416346047	14
8	859	94.13722503042	13
8	864	94.144063065241	12
8	868	94.255434259943	13
8	889	94.587323717164	12
8	898	94.68354794336	13
8	903	95.465903511431	14
8	908	95.85023187364	13
8	923	96.396980160163	12
8	930	96.882219737085	13
8	942	97.787607849361	14
8	944	97.953142984835	15
8	956	99.107893950557	14
8	963	99.247678641408	15
8	968	99.434702142873	16
8	973	99.564732317446	15
8	987	100.314858137066	16
8	992	100.46112679932	17
8	994	101.342004081386	18
8	1009	103.518840179074	17
8	1036	106.832334964571	18
8	1076	108.569303303359	17
8	1128	110.957137245524	18
8	1133	111.218788364684	17
8	1140	111.783390667274	18
8	1157	113.306049345829	17
8	1187	116.201383045312	18
8	1189	116.378204059894	19
8	1191	117.194576854093	20
8	1266	126.252610656862	19
8	1276	126.636333790764	18
8	1296	130.106365985248	17
8	1303	130.450506717059	18
8	1310	135.192157639581	19
8	1324	138.834103571051	20
8	1342	139.853995490174	19
8	1347	139.915001214355	18
8	1392	145.678049262826	17
8	1457	154.062484505176	16
8	1487	155.104890803166	15
8	1502	155.298053003141	14
8	1517	156.702343309882	13
8	1522	156.84290172356	12
8	1527	156.852150390726	11
8	1537	157.414765275942	10
8	1547	157.636281006578	9
8	1554	157.872122886653	10
8	1561	157.916876853012	11
8	1563	158.237117402495	12
8	1565	158.684715534809	13
8	1569	158.890886263107	14
8	1589	159.696570637026	15
8	1591	161.560365699898	16
8	1611	163.65008248666	15
8	1651	166.249667644713	14
8	1656	166.363580943735	13
8	1660	166.481572105264	14
8	1670	167.17480483458	15
8	1707	169.809971421299	14
8	1719	170.382177441744	15
8	1727	170.514665679784	14
8	1757	172.040114965855	13
8	1762	172.095594516364	12
8	1769	172.791816501511	13
8	1771	172.8530320678	14
8	1773	173.014783347502	15
8	1775	174.294606481297	16
8	1780	174.512881423792	15
8	1785	174.5857101351	14
8	1809	175.748478366793	15
8	1822	176.388760560436	14
8	1827	176.46860327052	13
8	1842	176.863767389957	12
8	1859	177.772575271342	13
8	1893	181.265512697562	14
8	1902	181.592609152856	15
8	1905	181.775144158096	14
8	1918	182.02656714942	13
8	1922	182.040262692372	14
8	1930	182.274113340743	13
8	1940	182.823619490352	12
8	1947	183.045557213239	13
8	1949	183.284863590085	14
8	1956	185.865538528779	15
8	1958	186.254364086583	16
8	1960	189.172407704873	17
8	1972	190.187132948302	16
8	1981	190.782697088555	17
8	2009	191.811438164605	18
8	2011	192.562773673369	19
8	2031	197.095046132541	18
8	2036	197.16844694456	17
8	2056	202.508825768313	16
8	2068	203.673516568681	17
8	2090	204.927496548397	18
8	2105	205.429999168546	17
8	2135	206.189133115052	16
8	2147	206.585548190489	17
8	2152	206.710132232828	16
8	2157	206.769640938738	15
8	2164	206.904747335654	16
8	2171	208.106115859053	17
8	2181	208.627818162956	16
8	2206	213.422052290886	15
8	2210	213.48358434153	16
8	2230	217.629345017257	17
8	2250	218.968931505692	16
8	2255	218.990285387078	15
8	2265	219.943354646664	14
8	2274	220.431049942864	13
8	2284	220.781602700328	12
8	2299	221.154754979718	13
8	2307	221.829235589684	12
8	2312	222.012571377574	11
8	2316	222.143491314592	12
8	2326	222.895898387027	13
8	2328	224.906298695918	14
8	2364	233.867319885205	15
8	2370	233.95135363872	14
8	2375	233.99999073232	13
8	2385	234.360756517468	12
8	2392	234.662329142627	13
8	2394	234.819249219433	14
8	2399	235.343410749185	13
8	2406	235.850065871407	14
8	2446	238.100184721925	13
8	2453	238.717477334051	14
8	2458	240.748677728349	13
8	2475	241.463007949344	14
8	2477	244.478414262638	15
8	2489	246.876452432629	16
8	2499	250.1805197197	15
8	2504	250.231815637395	14
8	2521	252.878016693553	15
8	2528	255.9513995424	16
8	2530	256.216048359717	17
8	2532	257.12989668455	18
8	2547	260.257206494754	17
8	2582	262.070150073864	16
8	2594	262.51015048535	17
8	2596	262.65579690408	18
8	2603	262.760930295069	17
8	2611	262.97560478336	16
8	2618	263.840658875971	17
8	2635	267.444424631567	18
8	2647	276.809599355829	19
8	2669	281.836902872907	20
8	2689	285.875227831698	19
8	2694	285.921669903401	18
8	2704	286.308516654025	17
8	2718	287.963069063533	18
8	2723	291.542632826202	19
8	2733	292.895816554573	18
8	2758	295.473918309643	17
8	2765	295.941959157812	18
8	2770	296.226046688452	17
8	2800	297.391187598474	16
8	2827	298.626035217546	17
8	2829	299.81193223088	18
8	2894	309.457799818861	17
8	2919	311.509228995681	16
8	2944	315.846102131346	15
8	2951	315.946522425699	14
8	2955	316.03029326301	15
8	2963	318.186316755522	16
8	2965	321.270956943641	17
8	2967	321.288713134021	18
8	2977	328.018935599347	17
8	2999	329.038713902398	18
8	3126	337.65509281788	17
8	3133	337.742534869161	18
8	3171	339.716091522314	17
8	3186	340.421469093558	16
8	3231	346.031318347677	15
8	3236	346.113383839107	14
8	3253	347.167429930766	15
8	3255	348.39753371621	16
8	3267	350.150112997263	17
8	3292	353.365350704715	16
8	3302	353.913261256121	15
8	3307	354.256625900254	14
8	3312	354.270304819457	13
8	3321	355.188970633152	14
8	3344	356.239972150917	13
8	3351	356.705178958888	12
8	3366	357.377899937649	13
8	3368	357.389606953895	14
8	3372	357.926902673153	15
8	3380	358.082332423274	14
8	3392	358.811618016099	13
8	3412	359.983131461129	14
8	3414	361.344137157896	15
8	3419	362.602379989899	14
8	3433	363.756903221767	15
8	3435	363.908231742982	16
8	3438	363.90849564571	15
8	3445	364.170221662232	16
8	3467	365.001649920225	17
8	3484	365.476468013051	18
8	3521	366.843280952013	19
8	3536	368.256627003639	18
8	3546	368.363170863529	17
8	3558	368.608926435469	16
8	3568	368.812203488112	15
8	3581	369.199688320482	14
8	3588	369.308278750953	15
8	3590	369.758078490177	16
8	3605	370.52992347967	15
8	3625	370.96375270914	14
8	3632	371.241973555555	15
8	3634	371.670907815091	16
8	3678	373.732148586787	17
8	3693	374.16696753406	18
8	3708	376.363551029098	17
8	3760	381.644804293655	18
8	3770	382.20626054588	17
8	3782	383.612589029719	18
8	3802	384.880608317359	17
8	3809	386.992898690745	18
8	3819	388.448652232451	17
8	3824	388.490836146045	16
8	3836	388.928952469054	15
8	3854	389.595691212815	14
8	3874	391.430182100088	13
8	3878	391.442854576801	14
8	3913	393.629997282618	15
8	3918	393.963316663068	14
8	3933	394.346660485885	13
8	3938	394.42765629383	12
8	3948	395.31798140176	11
8	3968	395.958510814074	10
8	3978	396.047421522239	9
8	3982	396.112769003343	10
8	3987	396.422999111085	11
8	3992	396.737066271676	10
8	4004	396.791086708109	9
8	4054	398.194724475438	8
8	4058	398.280540340336	9
8	4064	398.379926448299	8
8	4076	398.690761397203	9
8	4078	398.747245088441	10
8	4085	399.281512477727	11
8	4087	399.391689097737	12
8	4089	399.598842774702	13
8	4096	400.158594737935	14
8	4106	403.042506167139	13
8	4113	403.888538243936	14
8	4115	403.992714441438	15
8	4117	404.047483912639	16
8	4119	408.197504314992	17
8	4133	409.331263519271	18
8	4146	411.395756734918	17
8	4161	412.237847670936	16
8	4166	412.288286230091	15
8	4201	414.231315227629	14
8	4213	414.396265675425	15
8	4215	414.84718075337	16
8	4217	414.988255051875	17
8	4227	416.237319131491	16
8	4241	417.49593507717	17
8	4246	418.22394827728	18
8	4248	424.101458427363	19
8	4258	428.329668330357	18
8	4263	428.393856930742	17
8	4303	432.366849076666	16
8	4308	432.473195279712	15
8	4330	434.135848844479	16
8	4332	436.572228079594	17
8	4339	437.313802540724	18
8	4359	441.262054263199	17
8	4364	441.371750392015	16
8	4371	442.644710659576	17
8	4373	442.89905521669	18
8	4393	444.825134507577	17
8	4398	444.837464025338	16
8	4430	451.169424005358	17
8	4432	451.902747853185	18
8	4439	455.414056331143	19
8	4449	456.181655837625	18
8	4464	456.709522311459	17
8	4476	457.392893826287	18
8	4478	458.169579015377	19
8	4498	460.103027140891	18
8	4575	465.84077497091	17
8	4590	466.975697611828	16
8	4613	467.293010859377	15
8	4618	467.305376446866	14
8	4633	467.65028250825	13
8	4642	467.820315194027	14
8	4647	467.937086993564	13
8	4662	468.443938838408	12
8	4674	468.775658349869	11
8	4679	468.842503522281	10
8	4683	469.01254180115	11
8	4686	469.01332677302	10
8	4691	469.027443560791	9
8	4714	469.386630107981	8
8	4723	469.715914243133	9
8	4726	469.812013431574	8
8	4738	469.995277953471	9
8	4743	470.215065583186	10
8	4763	471.169725849554	9
8	4775	471.597106125465	10
8	4815	474.102715966757	9
8	4832	474.662623112532	10
8	4842	474.970645844879	9
8	4847	474.983132251965	8
8	4854	475.294267630006	9
8	4856	475.320570084879	10
8	4876	476.875144834103	9
8	4893	479.300672719508	10
8	4895	480.703721157285	11
8	4917	481.250153184034	10
8	4925	481.450411914121	11
8	4927	481.560120828655	12
8	4933	481.759294335758	11
8	4954	482.635111999702	10
8	4978	483.511358521227	11
8	4996	484.535091022283	10
8	5001	484.593842742918	9
8	5006	484.636418583564	8
8	5013	484.694895564415	9
8	5015	484.945208026004	10
8	5020	485.108302172668	9
8	5032	485.172886894843	8
8	5042	485.309220283574	9
8	5049	486.274936487727	10
8	5051	486.548681143493	11
8	5053	487.050050346132	12
8	5074	489.374743711824	13
8	5117	493.366536148249	14
8	5127	496.050623590227	13
8	5134	496.469817934495	14
8	5136	496.934802552214	15
8	5143	498.078323120285	16
8	5145	498.147838046564	17
8	5150	498.79863575143	16
8	5160	503.450176584656	15
8	5167	503.667311075088	16
8	5179	507.985236570919	17
8	5196	509.695264262672	18
8	5198	510.674840039272	19
8	5223	513.890960108299	18
8	5245	514.508510224044	19
8	5255	516.306935606978	18
8	5280	517.877114980582	17
8	5290	518.069715535881	16
8	5297	518.140412937035	15
8	5307	518.40367821191	16
8	5309	518.526641724912	17
8	5311	518.575755713084	18
8	5321	521.872068801961	17
8	5328	523.29378016318	18
8	5343	525.220035986237	17
8	5363	527.289069087541	16
8	5377	527.420945615582	17
8	5392	528.160014363743	18
8	5402	528.741743237227	17
8	5407	528.910651928249	16
8	5427	530.035573589866	15
8	5459	532.150711277589	16
8	5466	533.042901977954	17
8	5481	536.747982829052	16
8	5490	537.321544818302	17
8	5498	537.373178065456	16
8	5510	538.954345328628	17
8	5527	541.423034411016	18
8	5552	543.084342590452	17
8	5567	543.588971230989	16
8	5607	545.43353437683	15
8	5627	546.100882212022	14
8	5659	547.728494044401	13
8	5679	549.063163599429	14
8	5681	549.861704862506	15
8	5688	551.402340622678	16
8	5690	551.744907450591	17
8	5710	553.554349276189	16
8	5715	553.592625685506	15
8	5727	554.512037469396	16
8	5769	573.524507878472	17
8	5774	574.605402720986	16
8	5779	574.662283020049	15
8	5786	576.934081799564	16
8	5790	577.150147686875	17
8	5793	577.307241290911	16
8	5798	577.430606773199	15
8	5808	579.623295241274	14
8	5813	579.664511868362	13
8	5817	579.862922303314	14
8	5830	580.427736957328	13
8	5835	580.524351152087	12
8	5842	580.721080284868	13
8	5847	580.78508606117	12
8	5856	581.119984234107	13
8	5859	581.166335325411	12
8	5881	583.425217846616	13
8	5883	584.701146995872	14
8	5885	584.844702978808	15
8	5890	585.822742504318	14
8	5902	587.483918399813	15
8	5909	591.671175374825	16
8	5916	593.039567836098	17
8	5926	594.755679200378	16
8	5931	594.839165845552	15
8	5936	594.883192785511	14
8	5943	594.973833403505	15
8	5948	596.340835639535	14
8	5955	597.099413764081	15
8	5960	597.579055028593	14
8	5975	598.447330603716	13
8	5982	600.18938934861	14
8	5984	600.75151675507	15
8	5986	601.011685067611	16
8	6006	604.33764809088	15
8	6016	605.413970667276	14
8	6021	605.620404837218	13
8	6031	606.160740552743	12
8	6045	610.451871759356	13
8	6048	610.46044205873	12
8	6063	610.8600175619	11
8	6078	611.523348759775	10
8	6085	611.817153748482	11
8	6087	612.571748200418	12
8	6089	612.761287493148	13
8	6091	612.871956486308	14
8	6093	613.274852964321	15
8	6125	616.272231472242	16
8	6144	616.804176496325	17
8	6154	617.115481330162	18
8	6161	617.727789325226	19
8	6171	620.62019275544	18
8	6196	626.770922943848	17
8	6203	631.540465679299	18
8	6208	631.729364482609	17
8	6228	632.326808944535	16
8	6255	635.727016781398	17
8	6290	645.931905168372	16
8	6300	646.533563075892	15
8	6337	650.669576362158	16
8	6348	653.545013281077	17
8	6361	655.172765993489	18
8	6376	657.114349924846	17
8	6398	659.80934633152	18
8	6423	663.198502885545	17
8	6443	664.349828089076	16
8	6470	668.714160501272	17
8	6472	670.970941222752	18
8	6474	673.191750759002	19
8	6491	678.618543760382	20
8	6508	685.098131282217	19
8	6536	689.360771638547	18
8	6548	692.843453508683	19
8	6553	693.124910113358	18
8	6558	693.130436352037	17
8	6595	695.881839983155	18
8	6616	697.658599001317	19
8	6632	698.623146888042	18
8	6637	698.676748106605	17
8	6642	698.699484451647	16
8	6652	698.879266632078	15
8	6659	699.998806987363	16
8	6669	700.23652304821	15
8	6676	700.592522796834	16
8	6708	703.974548552763	17
8	6720	706.0624158336	18
8	6752	708.608350209988	19
8	6762	712.62229698176	18
8	6809	717.57003728953	19
8	6816	718.886079996019	20
8	6821	720.326896618845	19
8	6831	720.660274233181	18
8	6836	720.660630177791	17
8	6853	724.532461356115	18
8	6873	728.985354079363	17
8	6880	731.471480652442	18
8	6890	733.708569266561	17
8	6900	733.871586131252	16
8	6905	733.964404131797	15
8	6909	733.968543579168	16
8	6929	734.720272448768	15
8	6944	736.201586888676	16
8	6946	736.978275402613	17
8	6951	739.52706393179	16
8	6965	740.164478816687	17
8	6968	740.176945713041	16
8	6973	740.391808581078	15
8	6990	742.499426730392	16
8	6995	742.643733095401	15
8	7015	744.101852998245	14
8	7022	744.347671360113	15
8	7037	749.413674736299	14
8	7042	749.466855772393	13
8	7047	749.468171942594	12
8	7054	749.823133490845	13
8	7056	750.219989529175	14
8	7058	750.441987016572	15
8	7060	750.816361140295	16
8	7080	752.292351851538	15
8	7087	753.338105944617	16
8	7117	759.078422042461	15
8	7127	759.516112034635	14
8	7133	759.662287862661	15
8	7149	759.97566165861	14
8	7178	760.599817828824	13
8	7198	761.204090856559	12
8	7203	761.284578568253	11
8	7210	761.468353657165	12
8	7213	761.51242848208	11
8	7236	762.889284752726	10
8	7241	762.905173600886	9
8	7250	763.268115555267	10
8	7254	763.546904427674	11
8	7257	763.714861027867	10
8	7264	764.27445923719	11
8	7283	765.503139244377	12
8	7288	765.732471937482	13
8	7298	770.02334918123	14
8	7310	772.662774418994	15
8	7312	773.172521796893	16
8	7327	774.024582486086	15
8	7334	774.533496112342	16
8	7369	778.293145418295	15
8	7384	779.663689526158	14
8	7394	780.420834134166	13
8	7401	780.561793434908	14
8	7408	781.339434207873	15
8	7430	784.336028892769	16
8	7447	787.361328581676	17
8	7449	788.166904310621	18
8	7451	790.026890258893	19
8	7496	794.944222323168	18
8	7516	796.067032519841	17
8	7523	796.423378855223	18
8	7525	796.715278557362	19
8	7570	803.315351582383	18
8	7575	803.322562002844	17
8	7587	804.806155797609	18
8	7619	812.620317061308	19
8	7621	813.413323557306	20
8	7651	815.967875729236	19
8	7671	822.109133631406	18
8	7683	824.002739998619	19
8	7698	825.302046517775	18
8	7715	826.421260359249	19
8	7735	831.728406435633	18
8	7742	831.811443549884	17
8	7755	832.276850757472	16
8	7765	832.75542699024	15
8	7777	834.356221298817	16
8	7779	834.818890248345	17
8	7786	836.130032693042	18
8	7788	837.012141580373	19
8	7803	838.060897716016	18
8	7808	838.203941079597	17
8	7820	839.524892487407	18
8	7855	846.173948842723	17
8	7884	852.487122097206	18
8	7904	854.41362641586	19
8	7926	856.543369606078	20
8	7951	857.945078337535	19
8	7955	858.053430255535	20
8	8008	864.443712640161	19
8	8085	869.434069461479	18
8	8115	872.078349155595	19
8	8145	875.58255675359	18
8	8185	879.316576713179	17
8	8207	882.725032539722	16
8	8225	884.518958173158	15
8	8230	884.62903788183	14
8	8237	886.121851557371	15
8	8239	886.462295684013	16
8	8244	887.036986743679	15
8	8249	887.096839659501	14
8	8254	887.111837182659	13
8	8276	888.369294201899	14
8	8278	888.516195651058	15
8	8287	890.166816322961	16
8	8295	890.218894185233	15
8	8304	890.809004194248	16
8	8314	892.409359497366	17
8	8324	892.957363177674	16
8	8331	892.969031535845	17
8	8353	895.588680107708	18
8	8370	898.391251332079	19
8	8402	903.042448473363	20
8	8507	917.805902847337	19
8	8530	918.558743708896	20
8	8533	918.573073314958	19
8	8571	921.806637524963	20
8	8586	923.570553469895	19
8	8591	923.785194415185	18
8	8626	926.453289581997	17
8	8646	931.212743318983	16
8	8668	933.256627849358	15
8	8688	934.616759646779	16
8	8705	935.303854524139	17
8	8710	935.502513979821	16
8	8732	937.603867534656	17
8	8757	939.333916327496	16
8	8781	940.387927658772	17
8	8784	940.478382831452	16
8	8804	944.641276878069	15
8	8811	944.931506140402	16
8	8818	946.526021382888	17
8	8823	946.715350177174	16
8	8843	947.153223779996	15
8	8848	947.371808094671	14
8	8860	947.870486542364	15
8	8887	951.834523031564	16
8	8894	953.218666494648	17
8	8906	953.605331257228	18
8	8916	956.367994277476	17
8	8921	956.404885720687	16
8	8933	957.670718384968	17
8	8938	961.066167002947	16
8	8955	965.581928303693	17
8	8980	967.273983583844	16
8	8990	969.411401069156	15
8	9000	969.628178991221	14
8	9005	969.732617708875	13
8	9027	971.497416560199	14
8	9031	971.697820975635	15
8	9049	972.333188507201	14
8	9058	972.462767162362	15
8	9064	972.778325426334	16
8	9072	972.99372586584	15
8	9080	973.059888345161	14
8	9100	974.087322612663	15
8	9102	974.317215242564	16
8	9126	977.84934520583	17
8	9156	980.13680346423	18
8	9186	986.298565138237	17
8	9191	986.547160595385	16
8	9198	986.796554643421	17
8	9242	991.537602777479	18
8	9267	993.677334078657	19
8	9272	994.047645072842	18
8	9327	996.569115848494	17
8	9349	997.37476450164	16
8	9434	1000.134118935144	17
8	9446	1000.432926754561	16
8	9471	1000.880636965795	15
8	9484	1001.346305717074	14
8	9519	1004.519828552472	13
8	9546	1006.526043660423	14
8	9553	1009.12612224557	15
8	9568	1009.621349551528	14
8	9590	1010.383769078391	15
8	9592	1010.393649444119	16
8	9642	1011.983599791457	15
8	9664	1013.098831112725	16
8	9668	1013.847860324738	17
8	9676	1014.42567548269	16
8	9696	1015.363897001332	15
8	9720	1018.96909476183	16
8	9733	1020.516338270024	15
8	9752	1021.383186663193	16
8	9755	1021.480773485423	15
8	9762	1021.981872516041	16
8	9774	1022.864171970783	17
8	9779	1024.885602709608	16
8	9786	1025.036207947758	17
8	9798	1028.642604943433	18
8	9803	1030.61124847564	17
8	9828	1032.121127705674	16
8	9843	1032.955202334946	15
8	9853	1032.996263442122	14
8	9860	1033.26369342402	15
8	9872	1037.502440323378	16
8	9877	1038.350629671071	15
8	9884	1039.873254717982	16
8	9909	1041.250018494144	15
8	9918	1041.347485122158	16
8	9931	1041.628624722733	15
8	9943	1042.431086689129	16
8	9945	1042.537677623158	17
8	9950	1042.878874419557	16
8	9970	1043.738722161518	15
8	9982	1046.246569441576	16
8	9984	1046.792575762911	17
8	10001	1050.093014620784	18
8	10041	1053.456594111061	17
8	10046	1053.538684790372	16
8	10053	1054.760466163013	17
8	10055	1055.838484951423	18
8	10075	1056.844581595668	17
8	10080	1056.874134384766	16
8	10150	1065.248755432041	15
8	10155	1065.479500314645	14
8	10180	1067.267293099557	13
8	10195	1067.724654538952	12
8	10214	1068.341331610435	13
8	10222	1068.588888996703	12