version 2
run Multitask30-26-20150106-11:38:00-3652
attr configname Multitask30
attr datetime 20150106-11:38:00
attr experiment Multitask30
attr inifile omnetpp.ini
attr iterationvars ""
attr iterationvars2 $repetition=26
attr measurement ""
attr network Multitask
attr processid 3652
attr repetition 26
attr replication #26
attr resultdir results
attr runnumber 26
attr seedset 26

vector 8  Multitask.allocateQ2  queueLength:vector  ETV
attr interpolationmode  sample-hold
attr title  "queue length, vector"
vector 11  Multitask.queue3  queueLength:vector  ETV
attr interpolationmode  sample-hold
attr title  "queue length, vector"
vector 13  Multitask.queue3  busy:vector  ETV
attr interpolationmode  sample-hold
attr title  "server busy state, vector"
vector 15  Multitask.queue4  queueLength:vector  ETV
attr interpolationmode  sample-hold
attr title  "queue length, vector"
vector 17  Multitask.queue4  busy:vector  ETV
attr interpolationmode  sample-hold
attr title  "server busy state, vector"
vector 19  Multitask.queue5  queueLength:vector  ETV
attr interpolationmode  sample-hold
attr title  "queue length, vector"
vector 21  Multitask.queue5  busy:vector  ETV
attr interpolationmode  sample-hold
attr title  "server busy state, vector"
vector 23  Multitask.queue6  queueLength:vector  ETV
attr interpolationmode  sample-hold
attr title  "queue length, vector"
vector 25  Multitask.queue6  busy:vector  ETV
attr interpolationmode  sample-hold
attr title  "server busy state, vector"
vector 27  Multitask.queue7  queueLength:vector  ETV
attr interpolationmode  sample-hold
attr title  "queue length, vector"
vector 29  Multitask.queue7  busy:vector  ETV
attr interpolationmode  sample-hold
attr title  "server busy state, vector"
vector 30  Multitask.resourceCPU  amount:vector  ETV
attr interpolationmode  sample-hold
attr title  "available resource, vector"
vector 12  Multitask.queue3  queueingTime:vector  ETV
attr interpolationmode  none
attr title  "queueing time at dequeue, vector"
attr unit  s
vector 28  Multitask.queue7  queueingTime:vector  ETV
attr interpolationmode  none
attr title  "queueing time at dequeue, vector"
attr unit  s
vector 24  Multitask.queue6  queueingTime:vector  ETV
attr interpolationmode  none
attr title  "queueing time at dequeue, vector"
attr unit  s
vector 20  Multitask.queue5  queueingTime:vector  ETV
attr interpolationmode  none
attr title  "queueing time at dequeue, vector"
attr unit  s
vector 16  Multitask.queue4  queueingTime:vector  ETV
attr interpolationmode  none
attr title  "queueing time at dequeue, vector"
attr unit  s
vector 9  Multitask.allocateQ2  queueingTime:vector  ETV
attr interpolationmode  none
attr title  "queueing time at dequeue, vector"
attr unit  s
vector 0  Multitask.sink  lifeTime:vector  ETV
attr interpolationmode  none
attr title  "lifetime of arrived jobs, vector"
attr unit  s
vector 1  Multitask.sink  totalQueueingTime:vector  ETV
attr interpolationmode  none
attr title  "the total time spent in queues by arrived jobs, vector"
attr unit  s
vector 4  Multitask.sink  queuesVisited:vector  ETV
attr interpolationmode  none
attr title  "the total number of queues visited by arrived jobs, vector"
vector 3  Multitask.sink  totalServiceTime:vector  ETV
attr interpolationmode  none
attr title  "the total time spent  by arrived jobs, vector"
attr unit  s
vector 2  Multitask.sink  totalDelayTime:vector  ETV
attr interpolationmode  none
attr title  "the total time spent in delay nodes by arrived jobs, vector"
attr unit  s
vector 5  Multitask.sink  delaysVisited:vector  ETV
attr interpolationmode  none
attr title  "the total number of delays visited by arrived jobs, vector"
vector 6  Multitask.sink  generation:vector  ETV
attr interpolationmode  none
attr title  "the generation of the arrived jobs, vector"
0	12889	1552.055527934968	1552.055527935
0	12965	1575.566959747983	1575.566959748
0	13011	1580.591399273751	1580.5913992738
0	13024	1581.215359458681	1581.2153594587
0	13030	1581.394926077898	1581.3949260779
0	13036	1581.425293705448	1581.4252937054
0	13077	1584.205511118398	1584.2055111184
0	13091	1585.046392834467	1585.0463928345
0	13172	1600.532481258823	1600.5324812588
0	13203	1602.063854390143	1602.0638543901
0	13244	1605.498370373768	1605.4983703738
0	13250	1605.529194686795	1605.5291946868
0	13271	1606.247621614553	1606.2476216146
0	13284	1607.70386873985	1607.7038687398
0	13290	1607.830232714208	1607.8302327142
0	13304	1610.012455524877	1610.0124555249
0	13310	1610.141066507357	1610.1410665074
0	13396	1623.826470341111	1623.8264703411
0	13426	1624.592151539703	1624.5921515397
0	13458	1625.500374274606	1625.5003742746
0	13468	1625.857867552959	1625.857867553
0	13482	1626.519573063633	1626.5195730636
0	13492	1626.763758264858	1626.7637582649
0	13519	1633.382662364594	1633.3826623646
0	13526	1633.943918945368	1633.9439189454
1	12889	1552.055527934968	1271.3147070977
1	12965	1575.566959747983	1313.926097848
1	13011	1580.591399273751	1304.3076597486
1	13024	1581.215359458681	1195.7300423435
1	13030	1581.394926077898	1283.2628028046
1	13036	1581.425293705448	1351.032031338
1	13077	1584.205511118398	1232.6724993786
1	13091	1585.046392834467	1258.2571075455
1	13172	1600.532481258823	1324.4506408191
1	13203	1602.063854390143	1262.6347589435
1	13244	1605.498370373768	1286.3645894472
1	13250	1605.529194686795	1273.8053777067
1	13271	1606.247621614553	1315.5560017322
1	13284	1607.70386873985	1255.0846382811
1	13290	1607.830232714208	1276.0191476084
1	13304	1610.012455524877	1279.4227307522
1	13310	1610.141066507357	1289.772346801
1	13396	1623.826470341111	1339.1986326148
1	13426	1624.592151539703	1275.9367038001
1	13458	1625.500374274606	1314.639734603
1	13468	1625.857867552959	1252.2104373776
1	13482	1626.519573063633	1288.3903613547
1	13492	1626.763758264858	1273.0253071255
1	13519	1633.382662364594	1334.5194069698
1	13526	1633.943918945368	1338.7297300863
2	12889	1552.055527934968	0
2	12965	1575.566959747983	0
2	13011	1580.591399273751	0
2	13024	1581.215359458681	0
2	13030	1581.394926077898	0
2	13036	1581.425293705448	0
2	13077	1584.205511118398	0
2	13091	1585.046392834467	0
2	13172	1600.532481258823	0
2	13203	1602.063854390143	0
2	13244	1605.498370373768	0
2	13250	1605.529194686795	0
2	13271	1606.247621614553	0
2	13284	1607.70386873985	0
2	13290	1607.830232714208	0
2	13304	1610.012455524877	0
2	13310	1610.141066507357	0
2	13396	1623.826470341111	0
2	13426	1624.592151539703	0
2	13458	1625.500374274606	0
2	13468	1625.857867552959	0
2	13482	1626.519573063633	0
2	13492	1626.763758264858	0
2	13519	1633.382662364594	0
2	13526	1633.943918945368	0
3	12889	1552.055527934968	123.82434225024
3	12965	1575.566959747983	104.55074204534
3	13011	1580.591399273751	85.085019499386
3	13024	1581.215359458681	168.19101596675
3	13030	1581.394926077898	112.35838642216
3	13036	1581.425293705448	88.123919380244
3	13077	1584.205511118398	137.3001559609
3	13091	1585.046392834467	131.08158147854
3	13172	1600.532481258823	108.4207324286
3	13203	1602.063854390143	91.365273028985
3	13244	1605.498370373768	123.12285068017
3	13250	1605.529194686795	94.061508701336
3	13271	1606.247621614553	144.58001037814
3	13284	1607.70386873985	170.0012686325
3	13290	1607.830232714208	145.62820040765
3	13304	1610.012455524877	80.150569350898
3	13310	1610.141066507357	75.640400808979
3	13396	1623.826470341111	116.04732063836
3	13426	1624.592151539703	127.18974894328
3	13458	1625.500374274606	114.0495030126
3	13468	1625.857867552959	142.40784813794
3	13482	1626.519573063633	173.48373114195
3	13492	1626.763758264858	152.63381771798
3	13519	1633.382662364594	104.7139496091
3	13526	1633.943918945368	129.5604694231
4	12889	1552.055527934968	40
4	12965	1575.566959747983	49
4	13011	1580.591399273751	61
4	13024	1581.215359458681	70
4	13030	1581.394926077898	60
4	13036	1581.425293705448	47
4	13077	1584.205511118398	59
4	13091	1585.046392834467	60
4	13172	1600.532481258823	44
4	13203	1602.063854390143	28
4	13244	1605.498370373768	51
4	13250	1605.529194686795	42
4	13271	1606.247621614553	64
4	13284	1607.70386873985	46
4	13290	1607.830232714208	40
4	13304	1610.012455524877	30
4	13310	1610.141066507357	41
4	13396	1623.826470341111	49
4	13426	1624.592151539703	41
4	13458	1625.500374274606	49
4	13468	1625.857867552959	55
4	13482	1626.519573063633	67
4	13492	1626.763758264858	55
4	13519	1633.382662364594	36
4	13526	1633.943918945368	65
5	12889	1552.055527934968	0
5	12965	1575.566959747983	0
5	13011	1580.591399273751	0
5	13024	1581.215359458681	0
5	13030	1581.394926077898	0
5	13036	1581.425293705448	0
5	13077	1584.205511118398	0
5	13091	1585.046392834467	0
5	13172	1600.532481258823	0
5	13203	1602.063854390143	0
5	13244	1605.498370373768	0
5	13250	1605.529194686795	0
5	13271	1606.247621614553	0
5	13284	1607.70386873985	0
5	13290	1607.830232714208	0
5	13304	1610.012455524877	0
5	13310	1610.141066507357	0
5	13396	1623.826470341111	0
5	13426	1624.592151539703	0
5	13458	1625.500374274606	0
5	13468	1625.857867552959	0
5	13482	1626.519573063633	0
5	13492	1626.763758264858	0
5	13519	1633.382662364594	0
5	13526	1633.943918945368	0
6	12889	1552.055527934968	0
6	12965	1575.566959747983	0
6	13011	1580.591399273751	0
6	13024	1581.215359458681	0
6	13030	1581.394926077898	0
6	13036	1581.425293705448	0
6	13077	1584.205511118398	0
6	13091	1585.046392834467	0
6	13172	1600.532481258823	0
6	13203	1602.063854390143	0
6	13244	1605.498370373768	0
6	13250	1605.529194686795	0
6	13271	1606.247621614553	0
6	13284	1607.70386873985	0
6	13290	1607.830232714208	0
6	13304	1610.012455524877	0
6	13310	1610.141066507357	0
6	13396	1623.826470341111	0
6	13426	1624.592151539703	0
6	13458	1625.500374274606	0
6	13468	1625.857867552959	0
6	13482	1626.519573063633	0
6	13492	1626.763758264858	0
6	13519	1633.382662364594	0
6	13526	1633.943918945368	0
8	0	0	0
8	83	2.391428589428	1
8	90	2.56328543748	2
8	99	3.140332251613	3
8	101	3.323525836936	4
8	103	3.494390320577	5
8	110	3.68075328073	6
8	130	4.897427665722	7
8	137	6.855603142958	8
8	139	7.32702224886	9
8	141	7.739804392498	10
8	143	8.194811891371	11
8	150	9.493120177617	12
8	152	10.060823733267	13
8	159	12.486607210204	14
8	173	13.437014457602	15
8	176	13.784350280134	14
8	183	13.894382134845	15
8	192	14.62301737985	16
8	205	15.531256891115	15
8	209	15.569438535617	16
8	214	15.786318110945	15
8	222	16.032124615427	14
8	227	16.05951771174	13
8	232	16.308722504832	12
8	239	16.865696535361	13
8	241	18.121120115135	14
8	243	18.175059057294	15
8	248	19.647347388713	14
8	263	20.322506442728	13
8	270	20.445538001586	14
8	272	22.222127360405	15
8	279	22.529679752202	16
8	281	22.53676306409	17
8	290	24.399729645948	18
8	365	36.177262968579	19
8	375	37.446170977792	18
8	385	37.879142124972	17
8	407	40.961491656595	18
8	409	42.398366221597	19
8	413	42.696051593861	20
8	418	42.75570847026	19
8	483	47.292008108609	20
8	503	60.735940331015	19
8	528	63.9603012457	18
8	543	64.308571501488	17
8	548	64.315872627633	16
8	568	67.061362039681	15
8	572	67.100585064811	16
8	580	68.309828068174	15
8	585	68.447499591316	14
8	590	68.471824604707	13
8	597	71.935802963787	14
8	599	72.174679813247	15
8	613	73.384645714919	16
8	618	74.242012084924	17
8	620	76.720086209565	18
8	680	86.706136916389	17
8	692	87.349136486911	18
8	704	88.747844897555	17
8	712	88.869584207895	16
8	725	89.181846543139	17
8	728	89.310853660102	16
8	733	89.543755961072	15
8	738	89.564509403212	14
8	746	89.665611267241	13
8	759	89.787267183284	12
8	763	89.847803600847	13
8	766	90.074240598606	12
8	780	90.443667560127	13
8	783	90.517149257337	12
8	805	91.220284042075	11
8	813	91.482896663142	10
8	820	91.802416665861	11
8	824	91.982609950763	12
8	852	94.185751424946	11
8	874	95.339331875529	12
8	876	96.173415302928	13
8	885	98.292130090749	14
8	887	98.346719378186	15
8	895	98.871879190039	14
8	900	99.00382213832	13
8	917	99.667918998148	14
8	937	103.909694289627	13
8	944	104.38674795001	14
8	956	106.056867240213	15
8	958	106.160438502703	16
8	965	108.218935353232	17
8	972	109.816936099532	18
8	992	110.732791859694	17
8	1014	111.665265644769	16
8	1027	111.703538074865	15
8	1049	113.020166316644	16
8	1066	117.568196904603	17
8	1068	117.765188324206	18
8	1072	119.852063810323	19
8	1090	125.055940212141	18
8	1127	130.201315188257	17
8	1147	132.872533309813	18
8	1149	134.864069172307	19
8	1166	136.23570275739	20
8	1171	136.641266894729	19
8	1186	140.298794270552	18
8	1198	141.764649888708	19
8	1208	142.486500630894	18
8	1213	142.566700102169	17
8	1275	149.734132381437	18
8	1280	150.734592425209	17
8	1295	151.406277701825	16
8	1304	151.761770881412	17
8	1309	151.872424043141	16
8	1317	152.03168889455	15
8	1329	152.85812853573	16
8	1336	154.370161449847	17
8	1338	154.553590317986	18
8	1340	154.875922626302	19
8	1342	154.994310025567	20
8	1367	158.463307301213	19
8	1372	158.636474408	18
8	1392	159.413927053724	17
8	1424	162.612240624543	18
8	1439	163.113608807416	17
8	1448	163.346544966913	18
8	1461	164.179794676878	17
8	1466	164.222136330702	16
8	1484	164.400490806052	17
8	1503	165.046124747003	16
8	1515	165.2923429262	17
8	1542	170.263129953703	18
8	1562	175.896490776145	17
8	1571	176.41408360755	18
8	1584	177.764812055591	17
8	1594	182.845393916006	16
8	1614	184.761380182297	15
8	1621	185.193766391962	16
8	1623	185.332046759052	17
8	1638	191.068824211376	16
8	1648	191.605548254819	15
8	1653	191.714854961448	14
8	1665	192.624678621604	15
8	1667	192.832255202231	16
8	1672	194.368623272612	15
8	1676	194.455278991204	16
8	1691	200.816068260204	17
8	1703	204.185877182878	16
8	1726	205.43422194467	15
8	1736	206.190080461055	14
8	1740	206.289834681047	15
8	1745	209.430213809684	16
8	1747	209.496758956005	17
8	1781	212.345178227294	18
8	1799	212.94715554513	17
8	1806	214.800173425538	18
8	1811	226.371694907644	17
8	1818	227.076409653211	18
8	1820	227.376397337568	19
8	1875	238.480832541476	18
8	1887	239.412386039472	19
8	1897	240.202576885372	18
8	1902	240.29152857327	17
8	1912	240.445683640142	16
8	1922	241.165424835538	15
8	1944	241.622042970339	16
8	1949	245.401122499866	15
8	1981	247.16871624132	16
8	1986	247.188206673289	15
8	1998	247.908877582153	16
8	2018	250.992377615489	15
8	2025	251.218991111422	16
8	2057	253.091137358569	17
8	2064	257.171113500632	18
8	2075	260.092986155782	19
8	2086	260.89614829597	18
8	2091	260.950864133698	17
8	2096	260.955622947597	16
8	2113	265.375120217943	17
8	2123	269.822867880193	16
8	2138	270.46022806657	15
8	2143	270.727507064843	14
8	2160	271.643904579708	15
8	2162	271.71548597706	16
8	2172	273.061102675038	15
8	2182	273.921355122394	14
8	2224	275.828716612933	15
8	2246	277.145661103803	16
8	2248	277.656135340014	17
8	2277	281.987389849709	18
8	2292	284.764438609869	17
8	2296	284.780217275376	18
8	2326	287.897788419575	19
8	2331	288.502398605671	20
8	2366	294.395473895334	19
8	2388	297.847146792525	20
8	2418	299.722923458537	19
8	2428	300.011323054878	18
8	2493	308.758619839665	17
8	2535	312.464229445134	18
8	2567	313.515912326424	17
8	2577	313.941022228055	18
8	2594	318.983104211826	19
8	2614	320.462987811365	18
8	2619	320.519588036759	17
8	2624	320.956240420956	16
8	2631	322.560453454327	17
8	2635	323.629765316409	18
8	2645	324.401356178757	19
8	2674	331.226407735328	20
8	2702	332.219888487181	19
8	2714	332.397157426089	18
8	2807	336.214766901902	17
8	2839	339.871887271477	18
8	2854	341.127019663934	17
8	2894	343.191800785836	16
8	2911	345.008548799396	17
8	2913	346.436169128632	18
8	2920	347.080653374303	17
8	2930	347.143744266272	16
8	2975	350.518671578719	17
8	2985	351.880714091077	16
8	3000	352.591079521933	15
8	3007	352.837934596485	16
8	3019	355.047485483807	17
8	3021	359.254979852582	18
8	3041	364.182705983964	17
8	3048	367.855771238698	18
8	3075	374.478857200701	19
8	3080	375.372077585782	18
8	3092	376.552837745758	19
8	3099	377.706544495902	20
8	3104	380.873898966829	19
8	3111	381.247898583338	20
8	3166	395.864325036842	19
8	3178	397.342832936112	20
8	3238	408.996479109234	19
8	3248	413.835367498334	18
8	3290	421.275495101761	19
8	3307	424.183332251806	20
8	3367	428.387459941939	19
8	3384	431.386464046204	20
8	3389	432.951950679136	19
8	3461	435.564691552516	20
8	3466	435.81860409914	19
8	3501	443.543566542377	18
8	3506	443.616913352253	17
8	3513	443.861773015632	16
8	3528	444.023779956041	17
8	3542	446.181101956432	18
8	3590	448.557804812	17
8	3595	448.705174253051	16
8	3599	448.851915347059	17
8	3607	450.629267779511	16
8	3619	451.373783138343	17
8	3661	457.358490615811	18
8	3666	459.500905333727	17
8	3670	459.530408831937	18
8	3675	460.381936040469	19
8	3690	464.254596477503	18
8	3700	464.626597518822	17
8	3716	465.308443049776	18
8	3737	466.297146745373	17
8	3742	466.327328120808	16
8	3784	467.712257768732	17
8	3789	468.099736502162	16
8	3806	470.085263244392	15
8	3821	470.764139084659	16
8	3823	471.415825325255	17
8	3825	474.788352640594	18
8	3840	477.840696717303	17
8	3857	479.458040259217	18
8	3874	485.203787554068	19
8	3894	490.268443231343	18
8	3939	493.751244949445	17
8	3961	494.495729011974	18
8	3966	494.802409226684	17
8	3981	495.304242694296	16
8	3995	495.901290102672	17
8	4000	496.389860022188	18
8	4010	499.305018684972	17
8	4022	502.423154506248	18
8	4059	508.04625230286	19
8	4081	511.238606500438	20
8	4116	514.401953156775	19
8	4151	523.836944409986	18
8	4156	523.886931885402	17
8	4166	525.168824952678	16
8	4198	527.364433679761	17
8	4208	529.1780359781	16
8	4225	529.774124351581	17
8	4227	530.059148782138	18
8	4237	533.328177353895	17
8	4254	535.457928813	18
8	4256	536.854031356144	19
8	4271	539.604302250416	18
8	4291	540.489556010366	17
8	4296	540.509390188447	16
8	4308	540.771592721118	17
8	4343	543.263425274429	16
8	4353	544.710091941859	15
8	4358	544.717235247736	14
8	4373	545.29772399527	13
8	4385	545.506661659932	14
8	4395	546.120643709756	13
8	4414	546.310383294962	14
8	4429	547.724795143212	15
8	4436	551.939903195565	16
8	4438	552.171900623576	17
8	4440	555.6474701831	18
8	4442	556.282336886071	19
8	4454	562.306202236839	20
8	4459	566.875364603714	19
8	4489	579.038685002722	18
8	4494	579.067867761315	17
8	4499	579.216690482235	16
8	4509	579.594178285398	15
8	4524	580.31109621025	14
8	4531	580.640504629943	15
8	4533	582.754981105299	16
8	4535	586.18657100559	17
8	4540	586.399496413852	16
8	4552	589.337212972999	17
8	4556	592.867805955865	18
8	4566	593.575243528612	19
8	4581	596.366005322045	18
8	4609	598.197362983578	19
8	4612	598.34462210014	18
8	4622	598.407005588776	17
8	4664	600.48434639732	18
8	4690	601.063836379961	17
8	4707	602.335481259479	18
8	4719	606.64136122049	19
8	4759	612.349565191604	18
8	4764	612.369419584787	17
8	4786	614.543387239973	18
8	4816	616.715704129844	17
8	4821	616.872326977478	16
8	4826	616.943035029791	15
8	4838	617.760443714969	16
8	4865	621.588643458587	17
8	4872	626.632685302681	16
8	4879	626.652031457195	15
8	4910	627.703378592176	14
8	4927	628.416259277271	13
8	4931	628.533546718944	14
8	4934	629.141108212423	13
8	4952	629.718604493029	12
8	4957	629.726913948666	11
8	4961	629.745192429284	12
8	4964	629.791697607846	11
8	4969	629.856478434833	10
8	4974	630.016561496955	9
8	4981	630.144121079181	10
8	4991	630.594843160162	9
8	5013	632.45493709889	10
8	5015	632.652482032592	11
8	5017	633.314621422963	12
8	5019	634.736730315337	13
8	5021	635.008511485112	14
8	5023	635.205673498372	15
8	5030	635.746632534826	16
8	5042	637.740571612115	17
8	5054	637.889617106226	18
8	5061	639.08515944355	19
8	5108	647.664788391523	20
8	5113	647.894874569705	19
8	5123	648.32007778943	18
8	5130	650.84828381568	19
8	5150	654.753973456074	18
8	5157	656.028924490488	19
8	5159	656.175973738084	20
8	5204	673.748287097997	19
8	5214	675.245759809222	18
8	5219	675.359976960578	17
8	5234	677.656610059989	16
8	5241	677.767492777246	17
8	5261	678.62316126024	16
8	5271	678.765106751615	15
8	5288	680.747330211252	16
8	5290	681.853702736638	17
8	5337	691.022376181371	18
8	5347	691.534533725665	17
8	5434	697.445679690897	18
8	5454	698.712796689315	17
8	5459	698.713190451306	16
8	5463	698.740724464639	17
8	5473	699.880848907852	16
8	5478	699.884469110303	15
8	5503	702.776963684498	16
8	5510	702.942085557966	17
8	5534	706.610150243086	16
8	5585	708.479346692957	15
8	5602	709.725261703572	16
8	5604	709.821319724766	17
8	5639	714.738276935409	16
8	5664	715.297406003198	15
8	5671	715.347617998314	16
8	5691	716.613269895475	15
8	5696	716.725839419746	14
8	5705	717.065593026104	15
8	5715	718.179361522749	14
8	5733	718.772416931588	13
8	5775	721.136730250019	14
8	5777	721.407045788376	15
8	5779	724.529893396128	16
8	5794	725.935014673594	15
8	5834	730.089027733321	14
8	5844	730.686104290216	13
8	5849	730.876747143227	12
8	5858	731.700629739255	13
8	5873	733.940819384527	14
8	5880	735.534289016073	15
8	5889	737.132266337795	16
8	5897	737.301703614499	15
8	5931	738.758770014005	16
8	5938	739.098625870696	17
8	5976	740.525710709186	16
8	5981	740.660530069644	15
8	6003	742.109523790357	16
8	6008	742.263552362686	15
8	6028	743.175176074814	14
8	6057	744.319965254158	15
8	6059	744.33094190368	16
8	6097	746.391005837244	15
8	6109	746.911109973042	14
8	6129	747.80564677984	15
8	6136	748.644713131844	16
8	6138	748.866527603523	17
8	6142	750.056201009784	18
8	6145	750.141421596679	17
8	6154	750.323526647096	18
8	6157	750.598777054209	17
8	6169	751.102235891262	16
8	6179	752.062965136443	15
8	6204	755.334362280902	16
8	6214	757.177526958603	15
8	6219	757.268428584227	14
8	6226	757.455982586934	13
8	6231	757.570034453614	12
8	6239	757.623024719109	11
8	6246	757.749634904404	12
8	6256	758.454897433266	11
8	6260	758.48021711921	12
8	6280	761.273986895485	13
8	6290	762.413284346049	12
8	6295	762.446496959672	11
8	6300	762.475973981135	10
8	6315	763.039803764687	9
8	6325	763.218159663047	8
8	6332	763.601713651979	9
8	6339	764.416555414623	10
8	6349	766.322081976092	9
8	6361	767.141852993668	10
8	6363	767.530348955715	11
8	6365	770.310312668055	12
8	6372	771.583725976383	13
8	6374	773.849015465312	14
8	6391	775.809787168393	13
8	6401	776.064027932327	14
8	6451	779.070293295356	13
8	6457	779.284621975758	14
8	6460	779.649685090497	13
8	6465	779.698013229986	12
8	6472	779.786363488022	13
8	6482	780.060105969472	12
8	6490	780.080593410813	11
8	6495	780.198801323153	10
8	6502	780.299431082358	11
8	6539	782.721774792199	12
8	6551	783.701322858709	13
8	6571	785.538673965483	12
8	6591	786.650308010088	11
8	6595	786.886296802076	12
8	6605	787.716745823596	13
8	6612	789.642139358167	14
8	6631	791.931556292342	15
8	6661	793.77835690178	16
8	6666	794.30649478636	15
8	6673	794.561512283053	16
8	6675	794.870441714375	17
8	6677	795.329848870359	18
8	6682	795.445210175606	17
8	6707	797.217211064329	16
8	6742	798.245310127643	15
8	6752	798.672914026091	14
8	6761	798.99842538711	15
8	6776	800.323027665971	14
8	6811	802.322533102478	15
8	6821	802.771739683986	14
8	6826	802.791314203698	13
8	6841	803.260817621207	12
8	6856	803.78891126225	11
8	6866	803.855037015757	10
8	6871	803.898823447614	9
8	6875	803.947728193323	10
8	6883	804.287612102844	9
8	6890	805.144878879481	10
8	6892	805.295466151443	11
8	6896	806.350949928862	12
8	6899	806.361275059844	11
8	6904	806.493267980446	10
8	6916	806.98069842057	11
8	6936	809.399310463417	10
8	6960	810.241228709162	11
8	6983	811.42011149645	10
8	6988	811.626071136078	9
8	7000	813.772096679699	10
8	7002	814.758565706104	11
8	7009	816.227090100541	12
8	7034	816.706586533247	11
8	7039	816.712009344014	10
8	7044	816.812467897351	9
8	7063	817.391325891567	10
8	7066	817.402205419376	9
8	7076	817.56194132563	8
8	7083	818.098898882285	9
8	7085	818.323381071669	10
8	7092	819.015333748356	11
8	7094	820.134864635004	12
8	7096	820.451968498236	13
8	7098	822.148589288736	14
8	7110	823.865959592406	15
8	7130	825.238729427749	14
8	7150	826.2685522866	13
8	7162	826.672023043577	14
8	7172	826.953218866379	13
8	7179	826.995232457266	12
8	7186	827.136973128406	13
8	7194	827.433827308464	12
8	7199	827.438471941878	11
8	7206	827.90198012406	12
8	7208	829.810497884405	13
8	7210	830.984813237507	14
8	7212	831.531312147244	15
8	7229	834.544365041546	16
8	7231	837.99495785275	17
8	7251	840.302587865362	16
8	7256	840.30658989951	15
8	7263	842.333590423016	16
8	7265	843.182881148389	17
8	7300	845.484036505745	16
8	7320	846.1437032309	15
8	7332	846.539697809653	16
8	7334	848.030353716762	17
8	7336	850.866940825317	18
8	7338	851.62668824295	19
8	7348	852.68182982033	18
8	7362	853.223044613378	17
8	7408	857.115771378742	16
8	7413	857.192144074619	15
8	7422	857.581412297489	16
8	7427	857.844380679517	17
8	7442	858.554559236012	16
8	7447	858.750219295455	15
8	7451	859.048763507324	16
8	7453	859.055181484284	17
8	7476	860.999777641932	16
8	7483	861.402631888157	17
8	7485	863.237586959281	18
8	7490	863.60071372635	17
8	7507	864.3379089297	18
8	7532	867.585079447469	17
8	7537	867.603320943911	16
8	7544	867.686677533023	15
8	7549	867.766678487194	14
8	7579	869.276051089255	15
8	7619	872.809286103084	14
8	7631	874.897751556061	15
8	7643	877.866258621203	16
8	7645	879.818315031091	17
8	7652	880.82254416553	18
8	7657	881.374541226983	17
8	7672	882.481249047148	16
8	7676	882.490553260829	17
8	7681	883.003512941069	18
8	7691	883.214370664719	17
8	7701	884.295339855047	16
8	7706	884.502879729031	15
8	7726	884.897194812195	14
8	7730	884.942041358522	15
8	7748	886.762233741387	14
8	7753	886.798506767622	13
8	7765	888.0561168057	14
8	7770	888.13120353901	13
8	7782	888.329934171222	14
8	7789	888.59304482903	15
8	7794	888.773671520133	14
8	7806	892.877259397091	15
8	7818	894.151412008044	16
8	7825	894.324632958899	15
8	7852	897.371813445108	16
8	7857	897.505194663979	17
8	7859	897.545592182867	18
8	7869	898.738393163173	17
8	7881	902.990747479722	18
8	7896	905.51529331162	17
8	7901	905.549788343062	16
8	7918	909.406597827015	17
8	7935	912.640826890577	18
8	7960	916.458293430291	17
8	7965	916.474276167709	16
8	7992	919.152500192666	17
8	8014	921.087014470722	16
8	8039	925.128623926173	17
8	8054	927.385397683913	16
8	8058	927.527046870529	17
8	8060	927.599932189595	18
8	8088	928.501014964184	17
8	8098	928.700564060096	16
8	8103	928.747662776008	15
8	8108	928.77770191114	14
8	8123	928.99804244472	13
8	8128	928.998418942243	12
8	8135	929.301310263329	13
8	8152	931.645164145612	14
8	8154	932.533247461139	15
8	8156	934.426471240656	16
8	8161	935.01592897419	15
8	8168	935.548675982637	16
8	8170	936.025872214736	17
8	8177	936.77329446451	18
8	8179	937.694984595572	19
8	8194	939.531515367731	18
8	8199	939.608795661589	17
8	8211	939.857101498062	18
8	8216	940.313237390243	17
8	8226	941.068041086569	16
8	8231	941.145950486321	15
8	8256	944.553162993201	14
8	8261	944.948611749474	13
8	8284	945.359197868696	14
8	8319	946.735241661038	15
8	8321	946.826681191293	16
8	8347	948.72477118766	15
8	8351	948.75060400267	16
8	8354	948.878918882993	15
8	8366	949.731458726438	16
8	8378	951.167584693328	17
8	8398	952.201812894336	16
8	8415	953.805076741162	17
8	8437	957.359315466818	18
8	8447	962.185492474806	17
8	8469	965.089929320507	18
8	8476	965.842918219566	19
8	8506	969.164687886618	18
8	8513	969.203125483567	19
8	8523	969.590124293304	18
8	8563	973.332897359936	17
8	8603	980.102105114476	16
8	8610	981.033540828765	17
8	8615	981.671181439993	16
8	8627	982.537925815484	17
8	8629	985.777591607734	18
8	8644	986.896427884363	17
8	8658	993.178032695138	18
8	8661	993.239712325386	17
8	8673	993.590806060778	16
8	8678	993.624895825993	15
8	8698	998.047349058526	16
8	8700	998.446462759044	17
8	8705	999.702069654088	16
8	8722	1001.278541009723	17
8	8727	1003.163105611513	16
8	8744	1006.741384510597	17
8	8751	1008.441458853503	18
8	8778	1009.695654551997	17
8	8786	1009.782029886195	16
8	8813	1014.041286857488	17
8	8818	1014.275586357143	16
8	8835	1015.339324885782	15
8	8840	1015.431060252711	14
8	8860	1016.17061009035	15
8	8862	1018.523918170663	16
8	8889	1020.229719826254	17
8	8916	1027.894571194307	18
8	8956	1030.171697917865	17
8	8966	1030.287932430859	16
8	8983	1030.950294198052	17
8	8995	1031.403929103375	16
8	9008	1031.680643602735	15
8	9014	1031.74370072786	16
8	9017	1031.897051682075	15
8	9030	1032.132673152109	14
8	9047	1032.700744514864	13
8	9062	1032.951653050689	14
8	9079	1033.636818251466	13
8	9094	1034.303364922043	14
8	9104	1034.544811054891	13
8	9108	1034.552986059812	14
8	9115	1034.873393447677	15
8	9123	1034.990782751761	14
8	9138	1035.558845919021	13
8	9145	1035.787541613169	14
8	9147	1037.770023942625	15
8	9152	1038.370983557503	14
8	9159	1038.925621314057	15
8	9161	1040.012658451875	16
8	9166	1041.42630290914	15
8	9170	1041.469970049643	16
8	9203	1045.133048845241	15
8	9213	1047.247905381026	14
8	9220	1047.931932852061	15
8	9222	1048.382418820763	16
8	9227	1050.668145960681	15
8	9237	1051.112242682349	14
8	9249	1052.621332444797	15
8	9251	1052.760837435314	16
8	9271	1056.217408696654	15
8	9276	1056.235770957359	14
8	9288	1059.205124438315	15
8	9290	1061.582783981281	16
8	9325	1066.815932419656	15
8	9347	1069.219724764769	16
8	9349	1069.315908896687	17
8	9351	1069.444121843497	18
8	9368	1070.368224309609	19
8	9378	1070.824358377681	18
8	9383	1070.916571235546	17
8	9400	1072.982346768325	18
8	9407	1073.430782786591	19
8	9441	1076.76996433533	20
8	9464	1078.254561279235	19
8	9511	1084.044706599082	20
8	9556	1087.02195010177	19
8	9573	1095.680253533047	20
8	9673	1117.059695168115	19
8	9685	1118.009828604876	20
8	9720	1124.96008957054	19
8	9732	1127.356304887679	20
8	9747	1133.143036246805	19
8	9772	1137.795439007814	18
8	9791	1139.111946673182	19
8	9804	1140.864750053073	18
8	9811	1141.557889588921	19
8	9816	1146.923335579624	18
8	9825	1147.589261943819	19
8	9868	1150.007875777591	18
8	9875	1150.883327192725	19
8	9877	1152.653256665007	20
8	9894	1156.141655694745	19
8	9899	1156.185213843167	18
8	9919	1158.364062926318	19
8	9921	1158.944007273671	20
8	9926	1159.100129636994	19
8	9936	1160.008977496068	18
8	9951	1161.063158658369	17
8	9958	1161.251272030394	18
8	9965	1161.354809109403	17
8	10000	1165.477160214093	18
8	10010	1166.151305331432	17
8	10015	1166.17237459642	16
8	10025	1166.515377360233	15
8	10030	1166.519439715077	14
8	10040	1166.592643436522	13
8	10072	1167.841044139407	14
8	10091	1168.675368228854	15
8	10101	1169.044308681263	14
8	10111	1169.201297749429	13
8	10146	1172.329859636897	14