version 2
run Multitask30-19-20150106-11:37:59-5272
attr configname Multitask30
attr datetime 20150106-11:37:59
attr experiment Multitask30
attr inifile omnetpp.ini
attr iterationvars ""
attr iterationvars2 $repetition=19
attr measurement ""
attr network Multitask
attr processid 5272
attr repetition 19
attr replication #19
attr resultdir results
attr runnumber 19
attr seedset 19

vector 8  Multitask.allocateQ2  queueLength:vector  ETV
attr interpolationmode  sample-hold
attr title  "queue length, vector"
vector 11  Multitask.queue3  queueLength:vector  ETV
attr interpolationmode  sample-hold
attr title  "queue length, vector"
vector 13  Multitask.queue3  busy:vector  ETV
attr interpolationmode  sample-hold
attr title  "server busy state, vector"
vector 15  Multitask.queue4  queueLength:vector  ETV
attr interpolationmode  sample-hold
attr title  "queue length, vector"
vector 17  Multitask.queue4  busy:vector  ETV
attr interpolationmode  sample-hold
attr title  "server busy state, vector"
vector 19  Multitask.queue5  queueLength:vector  ETV
attr interpolationmode  sample-hold
attr title  "queue length, vector"
vector 21  Multitask.queue5  busy:vector  ETV
attr interpolationmode  sample-hold
attr title  "server busy state, vector"
vector 23  Multitask.queue6  queueLength:vector  ETV
attr interpolationmode  sample-hold
attr title  "queue length, vector"
vector 25  Multitask.queue6  busy:vector  ETV
attr interpolationmode  sample-hold
attr title  "server busy state, vector"
vector 27  Multitask.queue7  queueLength:vector  ETV
attr interpolationmode  sample-hold
attr title  "queue length, vector"
vector 29  Multitask.queue7  busy:vector  ETV
attr interpolationmode  sample-hold
attr title  "server busy state, vector"
vector 30  Multitask.resourceCPU  amount:vector  ETV
attr interpolationmode  sample-hold
attr title  "available resource, vector"
vector 12  Multitask.queue3  queueingTime:vector  ETV
attr interpolationmode  none
attr title  "queueing time at dequeue, vector"
attr unit  s
vector 16  Multitask.queue4  queueingTime:vector  ETV
attr interpolationmode  none
attr title  "queueing time at dequeue, vector"
attr unit  s
vector 20  Multitask.queue5  queueingTime:vector  ETV
attr interpolationmode  none
attr title  "queueing time at dequeue, vector"
attr unit  s
vector 24  Multitask.queue6  queueingTime:vector  ETV
attr interpolationmode  none
attr title  "queueing time at dequeue, vector"
attr unit  s
vector 28  Multitask.queue7  queueingTime:vector  ETV
attr interpolationmode  none
attr title  "queueing time at dequeue, vector"
attr unit  s
vector 9  Multitask.allocateQ2  queueingTime:vector  ETV
attr interpolationmode  none
attr title  "queueing time at dequeue, vector"
attr unit  s
vector 0  Multitask.sink  lifeTime:vector  ETV
attr interpolationmode  none
attr title  "lifetime of arrived jobs, vector"
attr unit  s
vector 1  Multitask.sink  totalQueueingTime:vector  ETV
attr interpolationmode  none
attr title  "the total time spent in queues by arrived jobs, vector"
attr unit  s
vector 4  Multitask.sink  queuesVisited:vector  ETV
attr interpolationmode  none
attr title  "the total number of queues visited by arrived jobs, vector"
vector 3  Multitask.sink  totalServiceTime:vector  ETV
attr interpolationmode  none
attr title  "the total time spent  by arrived jobs, vector"
attr unit  s
vector 2  Multitask.sink  totalDelayTime:vector  ETV
attr interpolationmode  none
attr title  "the total time spent in delay nodes by arrived jobs, vector"
attr unit  s
vector 5  Multitask.sink  delaysVisited:vector  ETV
attr interpolationmode  none
attr title  "the total number of delays visited by arrived jobs, vector"
vector 6  Multitask.sink  generation:vector  ETV
attr interpolationmode  none
attr title  "the generation of the arrived jobs, vector"
0	13633	1518.198131231076	1518.1981312311
0	13644	1518.446392510673	1518.4463925107
0	13674	1524.450567521248	1524.4505675212
0	13700	1526.575878587609	1526.5758785876
0	13733	1531.083792907294	1531.0837929073
0	13749	1534.012258817642	1534.0122588176
0	13755	1534.020410461771	1534.0204104618
0	13761	1534.34139492166	1534.3413949217
0	13777	1534.852876556813	1534.8528765568
0	13848	1544.313761010535	1544.3137610105
0	13899	1550.776945623444	1550.7769456234
0	13905	1550.834609043165	1550.8346090432
0	13911	1550.932146660116	1550.9321466601
0	13922	1551.473566504975	1551.473566505
0	13943	1555.048481188146	1555.0484811881
0	13974	1556.632307581826	1556.6323075818
0	14005	1563.82693580944	1563.8269358094
0	14011	1563.876564757331	1563.8765647573
0	14027	1564.13488099994	1564.1348809999
0	14045	1567.082868548577	1567.0828685486
0	14053	1567.275263927456	1567.2752639275
0	14110	1579.616404186979	1579.616404187
0	14122	1580.821862295935	1580.8218622959
0	14129	1588.687475659363	1588.6874756594
0	14201	1616.10723205124	1616.1072320512
1	13633	1518.198131231076	1236.7672563206
1	13644	1518.446392510673	1206.197661497
1	13674	1524.450567521248	1253.8478081996
1	13700	1526.575878587609	1232.0673469138
1	13733	1531.083792907294	1250.7481534821
1	13749	1534.012258817642	1200.4988191009
1	13755	1534.020410461771	1210.6004109771
1	13761	1534.34139492166	1232.075176452
1	13777	1534.852876556813	1153.7293863595
1	13848	1544.313761010535	1238.0665570594
1	13899	1550.776945623444	1244.2538632037
1	13905	1550.834609043165	1252.2303029356
1	13911	1550.932146660116	1175.8482345314
1	13922	1551.473566504975	1301.7102904162
1	13943	1555.048481188146	1284.4449127414
1	13974	1556.632307581826	1296.4022317253
1	14005	1563.82693580944	1191.624321004
1	14011	1563.876564757331	1239.7045135158
1	14027	1564.13488099994	1220.1984405541
1	14045	1567.082868548577	1152.7547410827
1	14053	1567.275263927456	1271.9476337474
1	14110	1579.616404186979	1312.7646905682
1	14122	1580.821862295935	1194.7238789926
1	14129	1588.687475659363	1218.2244088421
1	14201	1616.10723205124	1247.8355711443
2	13633	1518.198131231076	0
2	13644	1518.446392510673	0
2	13674	1524.450567521248	0
2	13700	1526.575878587609	0
2	13733	1531.083792907294	0
2	13749	1534.012258817642	0
2	13755	1534.020410461771	0
2	13761	1534.34139492166	0
2	13777	1534.852876556813	0
2	13848	1544.313761010535	0
2	13899	1550.776945623444	0
2	13905	1550.834609043165	0
2	13911	1550.932146660116	0
2	13922	1551.473566504975	0
2	13943	1555.048481188146	0
2	13974	1556.632307581826	0
2	14005	1563.82693580944	0
2	14011	1563.876564757331	0
2	14027	1564.13488099994	0
2	14045	1567.082868548577	0
2	14053	1567.275263927456	0
2	14110	1579.616404186979	0
2	14122	1580.821862295935	0
2	14129	1588.687475659363	0
2	14201	1616.10723205124	0
3	13633	1518.198131231076	74.799518082023
3	13644	1518.446392510673	112.07777338548
3	13674	1524.450567521248	129.84321037213
3	13700	1526.575878587609	96.799544767295
3	13733	1531.083792907294	127.12201944613
3	13749	1534.012258817642	150.69202966149
3	13755	1534.020410461771	127.14085202959
3	13761	1534.34139492166	183.30436035187
3	13777	1534.852876556813	146.5410002828
3	13848	1544.313761010535	123.59690911892
3	13899	1550.776945623444	98.079744053322
3	13905	1550.834609043165	94.805541192393
3	13911	1550.932146660116	148.20752483166
3	13922	1551.473566504975	88.708413657635
3	13943	1555.048481188146	114.41931916089
3	13974	1556.632307581826	65.374929034963
3	14005	1563.82693580944	147.75857265077
3	14011	1563.876564757331	111.77957995531
3	14027	1564.13488099994	116.12896952657
3	14045	1567.082868548577	112.67929398295
3	14053	1567.275263927456	124.18716360923
3	14110	1579.616404186979	137.28185056682
3	14122	1580.821862295935	160.51838971476
3	14129	1588.687475659363	165.14244089735
3	14201	1616.10723205124	120.20198356928
4	13633	1518.198131231076	41
4	13644	1518.446392510673	51
4	13674	1524.450567521248	55
4	13700	1526.575878587609	48
4	13733	1531.083792907294	49
4	13749	1534.012258817642	67
4	13755	1534.020410461771	53
4	13761	1534.34139492166	92
4	13777	1534.852876556813	65
4	13848	1544.313761010535	45
4	13899	1550.776945623444	42
4	13905	1550.834609043165	39
4	13911	1550.932146660116	60
4	13922	1551.473566504975	42
4	13943	1555.048481188146	58
4	13974	1556.632307581826	36
4	14005	1563.82693580944	61
4	14011	1563.876564757331	43
4	14027	1564.13488099994	64
4	14045	1567.082868548577	46
4	14053	1567.275263927456	66
4	14110	1579.616404186979	63
4	14122	1580.821862295935	67
4	14129	1588.687475659363	68
4	14201	1616.10723205124	44
5	13633	1518.198131231076	0
5	13644	1518.446392510673	0
5	13674	1524.450567521248	0
5	13700	1526.575878587609	0
5	13733	1531.083792907294	0
5	13749	1534.012258817642	0
5	13755	1534.020410461771	0
5	13761	1534.34139492166	0
5	13777	1534.852876556813	0
5	13848	1544.313761010535	0
5	13899	1550.776945623444	0
5	13905	1550.834609043165	0
5	13911	1550.932146660116	0
5	13922	1551.473566504975	0
5	13943	1555.048481188146	0
5	13974	1556.632307581826	0
5	14005	1563.82693580944	0
5	14011	1563.876564757331	0
5	14027	1564.13488099994	0
5	14045	1567.082868548577	0
5	14053	1567.275263927456	0
5	14110	1579.616404186979	0
5	14122	1580.821862295935	0
5	14129	1588.687475659363	0
5	14201	1616.10723205124	0
6	13633	1518.198131231076	0
6	13644	1518.446392510673	0
6	13674	1524.450567521248	0
6	13700	1526.575878587609	0
6	13733	1531.083792907294	0
6	13749	1534.012258817642	0
6	13755	1534.020410461771	0
6	13761	1534.34139492166	0
6	13777	1534.852876556813	0
6	13848	1544.313761010535	0
6	13899	1550.776945623444	0
6	13905	1550.834609043165	0
6	13911	1550.932146660116	0
6	13922	1551.473566504975	0
6	13943	1555.048481188146	0
6	13974	1556.632307581826	0
6	14005	1563.82693580944	0
6	14011	1563.876564757331	0
6	14027	1564.13488099994	0
6	14045	1567.082868548577	0
6	14053	1567.275263927456	0
6	14110	1579.616404186979	0
6	14122	1580.821862295935	0
6	14129	1588.687475659363	0
6	14201	1616.10723205124	0
8	0	0	0
8	105	2.43248372114	1
8	112	2.836076770179	2
8	114	2.982411775801	3
8	128	4.026389536297	4
8	131	4.032854965371	3
8	138	5.322926258632	4
8	140	5.629407070429	5
8	157	7.85320199846	6
8	164	7.886892976168	7
8	166	7.963487656225	8
8	181	9.056962286865	7
8	186	9.067539179143	6
8	191	9.159029322933	5
8	195	9.244340617682	6
8	212	10.075711563498	5
8	222	10.096697935028	6
8	227	11.146717976441	7
8	229	11.258786738576	8
8	231	12.563522529576	9
8	233	13.690547996448	10
8	240	14.323371205188	11
8	250	14.608097283448	10
8	260	15.193208449278	9
8	267	15.74012063479	10
8	274	16.429626299505	11
8	281	17.022422121216	12
8	286	17.372797529174	11
8	301	17.805663579107	10
8	308	18.905735453076	11
8	312	19.8151106322	12
8	322	20.711586101161	13
8	334	22.652066889767	14
8	359	25.022188708009	13
8	366	27.163064405284	14
8	371	27.967750347041	13
8	378	28.812549467501	14
8	388	29.871222800667	13
8	413	31.987648774324	12
8	420	32.176256267739	13
8	425	32.885138363748	12
8	434	34.205464465839	13
8	442	34.659602401317	12
8	452	35.306502239407	11
8	459	35.922898564887	12
8	461	37.596230134011	13
8	466	38.185768352272	12
8	473	38.336693538804	13
8	475	39.370624138471	14
8	479	39.795003880352	15
8	484	40.594743967558	16
8	486	41.719112894655	17
8	493	44.401669032234	18
8	508	49.839733485517	17
8	518	50.02994511134	16
8	527	50.756038925432	17
8	537	53.949916970756	18
8	544	54.485479651103	17
8	551	54.582349886066	16
8	572	55.381740279806	15
8	600	55.905095871841	16
8	603	55.970133760084	15
8	614	56.08397392663	14
8	634	56.544685410176	13
8	639	56.564685551419	12
8	671	58.460124342462	13
8	698	60.343903979224	14
8	700	60.738315844273	15
8	705	60.78101245978	14
8	720	61.750678213376	13
8	724	61.756944063777	14
8	729	61.905194588804	15
8	749	62.658421488218	14
8	769	63.134660953132	13
8	786	64.189273453088	14
8	805	65.17335962864	13
8	820	65.551687642161	14
8	823	65.630539129283	13
8	863	67.535038096995	12
8	875	67.962062783203	13
8	877	69.015667357558	14
8	887	69.222665652727	13
8	914	72.369062763711	14
8	921	73.380050376146	15
8	925	73.473925498263	16
8	928	73.512462379212	15
8	978	79.075989497005	14
8	985	79.391540211415	15
8	992	80.744773927424	16
8	1022	82.301466507465	15
8	1042	83.02819086654	14
8	1054	84.329226214221	15
8	1061	86.683203838733	16
8	1078	88.373009031728	17
8	1085	89.175737978418	18
8	1105	94.889532620232	17
8	1110	95.015012624868	16
8	1125	95.285477385477	15
8	1132	96.966498669519	16
8	1134	96.989803136936	17
8	1144	99.692848240097	16
8	1149	99.695200862115	15
8	1201	105.012611463467	16
8	1203	105.284512835256	17
8	1213	105.453365104654	16
8	1225	108.151136741723	17
8	1227	111.044829710549	18
8	1232	113.972285675747	17
8	1244	117.749265900882	18
8	1249	118.621968907864	17
8	1253	118.721511449189	18
8	1281	124.165486361532	17
8	1301	124.988321396439	16
8	1321	127.071331403814	15
8	1326	127.093097159548	14
8	1333	128.112039344869	15
8	1340	129.795351804186	16
8	1342	129.940755219732	17
8	1344	130.404917630733	18
8	1349	132.43136239942	17
8	1409	135.599294909025	16
8	1419	136.09809621521	15
8	1441	137.578258755754	16
8	1443	138.525993438283	17
8	1455	140.490137721013	18
8	1467	141.953056011432	17
8	1500	153.75478841452	16
8	1507	154.005854513441	17
8	1519	154.735128135147	18
8	1524	156.341996735978	17
8	1541	157.164107874572	16
8	1551	158.62020412476	17
8	1568	163.205074504355	18
8	1575	167.97191576235	19
8	1657	173.981367040566	18
8	1720	179.448976022449	17
8	1744	182.600135816369	18
8	1767	184.90301290448	17
8	1777	185.880069861405	16
8	1787	186.072524987746	15
8	1792	186.074987871013	14
8	1822	187.827021629989	13
8	1829	188.047923656902	14
8	1843	189.372769184218	15
8	1851	189.846074954652	14
8	1858	190.675824926607	15
8	1860	190.692141504521	16
8	1862	190.873603610436	17
8	1882	192.317028611855	16
8	1892	192.607532375733	15
8	1902	192.945962189302	14
8	1918	193.13487469358	15
8	1921	193.136144552427	14
8	1941	193.872733405198	15
8	1988	195.998835098829	14
8	1996	196.571118517197	13
8	2006	196.627528647909	12
8	2013	198.250910909222	13
8	2017	198.372306537011	14
8	2022	198.438461993294	15
8	2024	198.699442910258	16
8	2036	200.081225391927	17
8	2038	201.279789276241	18
8	2040	203.57768317847	19
8	2065	210.484957675251	18
8	2072	213.805169422303	19
8	2074	213.992175123378	20
8	2139	218.254265546146	19
8	2149	218.648819069971	18
8	2154	218.707158690121	17
8	2198	223.153648757977	18
8	2216	225.686719947603	17
8	2223	227.32825104106	18
8	2233	229.815142957279	17
8	2270	231.818047260174	18
8	2275	231.879809779374	17
8	2282	232.541144507659	18
8	2327	236.334377698552	17
8	2341	238.364915805919	18
8	2348	239.115311674865	19
8	2351	239.122079273378	18
8	2358	240.063871082795	19
8	2438	248.968652327393	18
8	2445	249.994518486572	19
8	2460	258.176561290861	18
8	2477	259.03539650238	19
8	2491	259.729834719519	20
8	2504	261.06167696886	19
8	2516	263.366035032315	20
8	2556	265.989010775819	19
8	2563	266.186060914509	20
8	2613	272.699846940137	19
8	2665	284.509616249027	20
8	2735	292.174817754979	19
8	2750	293.588236280119	18
8	2789	304.551506791103	19
8	2809	309.277408460969	20
8	2849	315.583533643267	19
8	2881	318.200907347376	20
8	2886	319.299537150279	19
8	2906	320.791843598415	18
8	2915	321.164180658619	19
8	2948	325.854478578316	18
8	2963	327.415127098049	17
8	2975	331.364939396049	18
8	2982	333.590582403504	19
8	2997	334.718562133679	18
8	3007	335.666538763438	17
8	3027	337.107106500038	16
8	3032	337.28672635087	15
8	3039	337.571154373158	16
8	3059	337.941212503789	15
8	3066	338.129070608113	14
8	3078	338.540220639969	15
8	3083	338.772343408946	16
8	3094	339.238766160182	17
8	3099	339.67716110247	18
8	3104	339.722104560414	17
8	3124	340.882555589453	18
8	3146	341.85461292081	17
8	3204	346.642144056487	16
8	3216	349.19404943566	17
8	3228	352.752431651246	18
8	3238	353.284260433464	17
8	3250	353.955156422027	18
8	3252	354.141062064686	19
8	3257	356.724066217236	18
8	3287	359.256765305594	17
8	3329	360.935230178908	16
8	3369	363.560788419303	17
8	3381	367.304034799644	18
8	3393	368.869031531283	19
8	3398	377.652631854878	18
8	3405	379.017713845324	19
8	3407	379.190259418529	20
8	3417	383.087862754962	19
8	3432	384.214571438464	18
8	3444	387.348212801532	19
8	3446	390.001863886121	20
8	3546	404.375301561524	19
8	3556	404.656886347084	18
8	3581	406.804389570817	17
8	3601	409.141701594207	16
8	3606	409.192104274261	15
8	3613	409.69217185816	16
8	3620	410.604278489233	17
8	3627	411.597487414111	18
8	3637	412.356017516704	17
8	3644	412.434120542576	16
8	3657	412.703923888256	15
8	3674	413.341237318135	16
8	3688	414.260367708994	17
8	3736	416.094761876036	16
8	3746	416.30604498266	15
8	3773	417.601993880948	16
8	3778	417.901100070342	15
8	3785	418.425721851444	16
8	3795	419.249698450585	15
8	3809	421.533686931503	16
8	3822	421.742612573861	15
8	3829	421.879812030438	16
8	3848	422.704740817156	17
8	3853	423.226604611001	18
8	3858	423.482930312094	17
8	3870	424.862275799743	18
8	3900	429.992669324743	17
8	3912	431.227757862385	18
8	3914	432.938418139533	19
8	3919	434.128959433671	18
8	3974	439.103547107136	17
8	3996	440.230497214423	18
8	4001	443.249142147358	17
8	4028	446.463698554514	18
8	4038	449.014406369616	17
8	4043	449.056015139071	16
8	4053	449.330403384034	15
8	4058	449.355900139666	14
8	4063	449.413437572241	13
8	4070	451.612117100327	14
8	4072	451.787809713344	15
8	4079	453.247147167389	16
8	4101	458.325070775996	17
8	4106	459.108901685864	16
8	4113	460.581393024502	17
8	4162	464.318342726255	16
8	4174	464.589699732852	17
8	4177	464.606484605628	16
8	4190	465.166800269418	15
8	4222	467.22294982708	16
8	4227	467.486510750985	15
8	4231	467.500427698075	16
8	4259	468.86426608732	15
8	4266	469.616641853179	16
8	4286	470.275733430502	15
8	4318	470.729440253817	14
8	4341	471.346716269973	13
8	4358	472.224819229147	14
8	4365	473.528834016309	15
8	4382	477.575436979935	16
8	4396	480.830268149382	17
8	4399	480.924944894173	16
8	4426	483.772903050861	17
8	4436	487.648665607345	16
8	4448	490.622977989842	17
8	4453	490.994064045168	16
8	4458	491.072957468847	15
8	4475	497.576585892733	16
8	4487	498.944685301481	17
8	4499	499.722399139237	18
8	4501	500.384618638617	19
8	4526	506.431404355468	18
8	4538	507.63525357245	19
8	4543	508.380074229926	18
8	4573	510.031503037196	17
8	4578	510.063488968522	16
8	4590	510.40885157446	17
8	4592	510.45376847835	18
8	4597	510.546399683196	17
8	4616	511.887429649555	18
8	4639	514.749534597931	17
8	4658	515.797529027383	18
8	4663	516.123623025564	17
8	4681	517.123563032949	16
8	4686	517.211354748295	15
8	4703	517.993286038719	16
8	4720	519.735067302665	17
8	4730	521.806967640914	16
8	4737	523.05742205799	17
8	4739	523.197242424904	18
8	4761	524.423110676064	19
8	4781	528.963735610215	18
8	4785	528.987774431454	19
8	4790	529.284263466179	18
8	4798	529.357615301678	17
8	4838	531.724752052369	16
8	4845	532.407439825774	17
8	4872	538.619672775669	18
8	4879	539.546175001885	19
8	4889	540.236540046935	18
8	4901	540.503812498561	17
8	4926	542.196507045732	18
8	4933	543.967450409669	19
8	4943	549.19186862461	18
8	4955	551.618196636586	19
8	4962	553.215003490802	20
8	4967	556.442897782931	19
8	4971	556.467664214317	20
8	5004	560.281862895589	19
8	5014	561.344264534298	18
8	5024	562.106106160334	17
8	5089	574.458532117698	16
8	5104	575.020231872123	15
8	5136	576.020027462768	16
8	5138	577.00595537334	17
8	5140	577.356788013473	18
8	5197	585.917158561776	19
8	5202	587.057442451327	18
8	5216	589.118060149042	19
8	5221	589.917923154241	20
8	5276	601.69182999536	19
8	5298	605.934663634977	20
8	5303	607.078902522903	19
8	5328	608.823907999099	18
8	5345	610.641811041629	19
8	5352	611.439527208578	20
8	5392	616.470357069866	19
8	5407	616.817152354991	18
8	5457	625.26785542862	17
8	5472	626.885642163388	16
8	5479	627.430347654859	17
8	5494	628.715795231984	16
8	5501	629.653794022581	17
8	5531	631.783475891835	16
8	5541	632.024784744553	15
8	5557	632.643802085684	16
8	5580	633.208941583677	15
8	5615	634.385821343199	16
8	5627	635.5429917274	17
8	5659	639.888485523177	18
8	5664	642.024039668404	17
8	5669	642.184487491104	16
8	5681	643.025983510174	17
8	5686	643.551857674366	16
8	5751	648.459511338041	15
8	5796	650.382230808982	14
8	5801	650.618137771456	13
8	5813	651.037978275218	12
8	5821	651.082217628827	11
8	5848	652.649738516368	10
8	5878	653.466877590776	11
8	5888	653.895911902246	10
8	5915	655.096827284425	9
8	5920	655.101281640154	8
8	5945	656.814725550265	9
8	5952	659.741645238372	10
8	5954	662.165242827448	11
8	5958	662.419568920906	12
8	5968	663.275618825221	13
8	5973	663.317707923978	12
8	5983	663.905127646829	11
8	5993	665.167297444998	10
8	6003	666.499876759097	9
8	6007	666.536889369005	10
8	6010	666.548690989064	9
8	6024	667.487373949299	10
8	6029	667.49202319027	11
8	6031	667.682448565579	12
8	6043	668.547334876484	13
8	6050	670.819672123811	14
8	6057	672.488171819977	15
8	6059	672.648424982584	16
8	6069	673.729188518415	15
8	6088	674.559407865168	16
8	6092	674.881528556599	17
8	6105	675.771283540915	18
8	6107	677.229261106265	19
8	6114	678.958474154046	20
8	6144	686.650172351527	19
8	6214	693.074676314422	18
8	6254	695.771617162648	17
8	6274	696.607916219218	16
8	6291	703.143577248218	17
8	6301	703.98191304403	16
8	6353	709.662068893056	17
8	6360	713.606222628846	18
8	6362	715.732897736235	19
8	6369	723.847542416621	18
8	6382	724.11433245716	17
8	6409	727.103194292707	18
8	6424	734.058004900042	17
8	6456	737.737975179946	18
8	6468	739.221810869798	19
8	6483	739.589414554016	18
8	6513	741.470523965847	17
8	6518	741.587557235087	16
8	6535	742.603684469355	17
8	6537	742.784638716557	18
8	6596	749.574435891083	19
8	6599	749.64834288458	18
8	6611	750.254779388599	19
8	6613	750.264004205547	20
8	6653	753.791132888356	19
8	6663	754.033069374594	18
8	6678	755.753048185745	17
8	6683	755.763107438892	16
8	6700	756.129433146201	15
8	6704	756.141016893193	16
8	6710	756.147679712683	15
8	6725	756.270571032979	14
8	6730	756.428487016497	13
8	6737	756.760154779325	12
8	6762	758.388724113155	13
8	6771	759.359935318156	14
8	6776	759.584909915627	13
8	6785	760.034048630648	14
8	6793	760.459786594595	15
8	6797	761.13998452407	16
8	6815	761.773165379013	15
8	6832	765.448317128565	16
8	6837	766.081469087559	15
8	6847	766.655584171404	14
8	6862	766.934181438302	13
8	6922	770.545305513193	12
8	6934	771.524392518347	13
8	6936	771.871957160002	14
8	6943	772.592719959016	13
8	6951	772.79786076216	12
8	6970	773.810228090353	13
8	6983	773.977694191143	12
8	6990	774.202664512139	13
8	6992	774.350458147517	14
8	6999	774.452628173195	15
8	7006	775.012774668118	14
8	7021	775.202655331557	13
8	7048	776.180783122917	14
8	7051	776.24933542865	13
8	7071	776.960517016054	12
8	7086	778.27199981676	11
8	7093	779.895000040563	12
8	7103	780.321725612236	11
8	7107	780.366778086481	12
8	7112	781.329989521348	13
8	7114	782.06055306497	14
8	7116	783.999093090803	15
8	7118	784.085104761701	16
8	7120	786.595517250173	17
8	7132	789.964109611945	18
8	7134	792.769698170645	19
8	7166	799.295447695692	20
8	7201	802.61806218165	19
8	7231	803.520487811909	18
8	7241	803.757588554393	17
8	7246	803.959356100461	16
8	7262	804.983367893089	17
8	7265	805.150528522615	16
8	7287	805.923764076366	17
8	7330	808.668071575876	16
8	7350	809.436854973711	15
8	7355	809.44418088953	14
8	7367	810.300903965818	15
8	7382	812.70526542063	14
8	7394	813.33618062444	15
8	7401	816.467438181667	16
8	7438	820.254946598793	17
8	7449	821.364754204238	18
8	7455	821.691434530503	17
8	7462	821.965859078964	18
8	7464	823.689106204881	19
8	7479	824.923888501587	18
8	7489	825.24952677548	17
8	7509	827.550741448435	16
8	7519	827.898143529285	15
8	7529	831.292198946541	14
8	7534	831.333603760091	13
8	7543	832.167618671381	14
8	7598	837.186698528273	15
8	7605	837.774313404548	16
8	7627	842.152279862101	17
8	7629	847.076781089996	18
8	7634	850.558744829315	17
8	7651	852.581408616924	18
8	7658	855.853667723943	19
8	7663	856.16143079154	18
8	7673	857.161073166606	17
8	7693	857.87300034076	16
8	7712	860.628630573327	17
8	7717	862.792942778592	18
8	7719	863.318046869927	19
8	7726	865.121727090063	18
8	7734	865.508824673167	17
8	7754	866.186493142036	16
8	7759	866.193229383508	15
8	7771	867.713194448631	16
8	7783	870.368700445299	17
8	7818	872.729703811846	16
8	7825	873.076930234169	17
8	7845	876.636470089387	16
8	7857	876.919367557498	15
8	7861	876.93487154739	16
8	7869	877.249804420142	15
8	7882	879.139256114148	14
8	7909	879.610365996173	15
8	7916	879.939062562429	16
8	7923	883.951176958943	17
8	7953	889.992809894402	16
8	7983	892.009411125795	15
8	8000	892.311774097955	16
8	8010	892.583081141947	15
8	8014	892.70966378411	16
8	8038	894.075152448097	17
8	8044	894.261878623227	16
8	8061	896.468921966537	17
8	8081	897.578957039472	16
8	8096	898.666503995933	15
8	8118	898.91656099885	16
8	8173	903.680265518116	15
8	8212	904.874466807312	16
8	8222	905.499102273688	17
8	8239	908.832426910085	18
8	8244	910.286667814851	17
8	8249	910.374604626251	16
8	8256	910.704923604455	17
8	8258	911.138334272375	18
8	8318	916.279075449455	17
8	8338	918.112359589049	16
8	8350	918.575282147334	17
8	8360	919.497652594562	16
8	8370	923.290039072975	15
8	8387	926.025875965236	14
8	8405	926.545173931754	13
8	8414	926.968947082317	14
8	8424	928.737153384421	15
8	8431	929.684073958337	16
8	8443	931.604350694127	17
8	8445	931.812084931161	18
8	8452	932.57796900134	19
8	8527	959.40508348173	18
8	8532	959.490628740599	17
8	8544	960.2882171756	18
8	8546	961.824313813814	19
8	8551	962.0875905887	18
8	8581	965.808225770693	17
8	8586	965.890038188095	16
8	8598	966.226951625877	17
8	8625	970.488498947258	18
8	8630	971.233635709488	17
8	8640	971.764533120307	16
8	8652	972.009341483902	15
8	8665	972.337470806645	14
8	8675	972.549553334176	13
8	8680	972.562480855123	12
8	8692	972.749783637733	13
8	8722	973.803524374544	12
8	8734	974.122878590766	13
8	8741	974.364742200794	14
8	8743	974.849119532931	15
8	8745	975.090342139736	16
8	8752	975.87207812841	17
8	8757	976.693873819364	16
8	8767	976.943653483732	15
8	8794	977.696609160639	14
8	8846	979.494081805449	15
8	8854	980.154861863878	14
8	8866	981.505298934436	15
8	8868	982.895905134323	16
8	8878	983.671235394334	15
8	8888	985.363431411252	14
8	8923	987.695391854727	13
8	8933	987.789482090055	12
8	8960	988.435329133318	13
8	8970	988.619853546785	12
8	8984	989.397053586349	13
8	9002	990.765869374974	12
8	9024	991.976656264951	13
8	9031	993.374347803622	14
8	9033	993.473553245047	15
8	9040	994.601181605041	16
8	9052	997.43843515649	17
8	9079	1001.489065453014	18
8	9081	1002.177704038336	19
8	9120	1005.288672321316	18
8	9125	1005.366348965236	17
8	9130	1005.411639218358	16
8	9161	1008.598537805062	15
8	9198	1011.376424721604	16
8	9210	1012.742682234024	17
8	9217	1013.603472884222	18
8	9227	1013.931487995541	17
8	9279	1025.456164857677	18
8	9281	1026.752314077995	19
8	9286	1028.751777994184	18
8	9301	1029.547750197175	17
8	9306	1029.810385838024	16
8	9316	1030.093417638469	15
8	9326	1030.307060420384	14
8	9333	1030.728141179074	15
8	9335	1032.659213134546	16
8	9365	1035.216921794311	15
8	9370	1035.307164282321	14
8	9380	1035.596382797238	13
8	9385	1035.731904890141	12
8	9397	1036.244681265702	13
8	9409	1037.335644982375	14
8	9414	1037.538145945438	13
8	9426	1038.963936960527	14
8	9433	1039.574504668497	15
8	9445	1040.031474819096	16
8	9455	1042.618746479424	15
8	9470	1044.403565662254	14
8	9475	1044.51527553053	13
8	9506	1050.188416464342	14
8	9537	1051.170641347828	13
8	9542	1051.276711989528	12
8	9554	1051.639000428727	13
8	9556	1052.196991772542	14
8	9558	1052.822564885123	15
8	9562	1053.309550755673	16
8	9570	1053.580174432666	15
8	9589	1055.460586127749	16
8	9594	1057.432368397165	17
8	9641	1060.095029224972	16
8	9653	1060.800048328823	17
8	9668	1062.569523101992	18
8	9690	1066.836602471007	19
8	9707	1069.407080190982	20
8	9724	1074.110281519814	19
8	9742	1074.359036746918	18
8	9747	1074.371929857019	17
8	9772	1076.093641847151	16
8	9784	1076.266934464128	15
8	9796	1076.528763723433	16
8	9801	1076.993096975672	15
8	9806	1077.065580481715	14
8	9810	1077.106495361717	15
8	9818	1077.285435555973	14
8	9822	1077.380252445332	15
8	9830	1077.745556723011	14
8	9885	1082.399220752502	15
8	9890	1082.550902047919	14
8	9896	1082.651684520688	15
8	9901	1082.749422007543	16
8	9919	1083.254150914001	15
8	9934	1084.217204626258	14
8	9946	1086.561302878587	15
8	9948	1087.005831131788	16
8	9950	1090.158967287842	17
8	9957	1093.553118048282	18
8	9967	1093.914700280802	17
8	9997	1094.738666936127	16
8	10002	1094.937560115385	15
8	10027	1095.507546535103	14
8	10047	1096.262852124709	13
8	10059	1096.720535145273	14
8	10064	1097.555780638465	13
8	10071	1098.088580876373	14
8	10081	1098.531834232902	13
8	10085	1098.536263680412	14
8	10097	1099.342196901654	15
8	10100	1099.389272927724	14
8	10122	1099.905514911134	13
8	10126	1099.934017340846	14
8	10139	1100.703684457818	15
8	10141	1100.835528428517	16
8	10143	1103.633416506512	17
8	10150	1105.017272430154	18
8	10160	1106.807906832251	17
8	10187	1109.125436099459	18
8	10199	1110.145997524483	19
8	10216	1112.360231445452	20
8	10233	1114.262635006093	19
8	10238	1114.441073724176	18
8	10250	1114.76289406016	19
8	10253	1114.821895525495	18
8	10258	1114.970955142117	17
8	10270	1116.197247731881	18
8	10272	1116.364984187733	19
8	10282	1120.938151426613	18
8	10297	1121.745809768265	17
8	10304	1125.156180510112	18
8	10311	1125.696588418593	19
8	10321	1127.135561975024	18
8	10351	1128.55146548825	17
8	10371	1130.615746826447	16
8	10441	1137.093448301045	15
8	10446	1137.231448394034	14
8	10451	1137.341082846072	13
8	10463	1140.175888922701	14
8	10470	1141.777458226943	15
8	10482	1145.87808724244	16
8	10492	1146.470680646434	15
8	10497	1146.530073014294	14
8	10512	1146.905175315644	13
8	10532	1148.241305444955	12
8	10536	1148.33943681969	13
8	10566	1150.850758906815	14
8	10578	1151.16538066542	13
8	10585	1151.578470975994	14
8	10590	1151.878346130816	13
8	10630	1155.091484251785	14
8	10637	1156.384613394854	15
8	10654	1159.678810543851	16
8	10656	1159.893525964965	17
8	10661	1160.171672149347	16
8	10678	1161.502260100495	17
8	10705	1164.268069871568	18
8	10707	1164.445603482162	19
8	10712	1165.827595133891	18
8	10724	1166.749047445799	19
8	10734	1167.987470853713	18
8	10749	1170.492253058012	17
8	10756	1171.961626547277	18
8	10766	1173.881877868164	17
8	10776	1174.348324541562	16
8	10803	1177.212258688468	17