version 2
run Multitask30-16-20150106-11:37:59-4748
attr configname Multitask30
attr datetime 20150106-11:37:59
attr experiment Multitask30
attr inifile omnetpp.ini
attr iterationvars ""
attr iterationvars2 $repetition=16
attr measurement ""
attr network Multitask
attr processid 4748
attr repetition 16
attr replication #16
attr resultdir results
attr runnumber 16
attr seedset 16

vector 8  Multitask.allocateQ2  queueLength:vector  ETV
attr interpolationmode  sample-hold
attr title  "queue length, vector"
vector 11  Multitask.queue3  queueLength:vector  ETV
attr interpolationmode  sample-hold
attr title  "queue length, vector"
vector 13  Multitask.queue3  busy:vector  ETV
attr interpolationmode  sample-hold
attr title  "server busy state, vector"
vector 15  Multitask.queue4  queueLength:vector  ETV
attr interpolationmode  sample-hold
attr title  "queue length, vector"
vector 17  Multitask.queue4  busy:vector  ETV
attr interpolationmode  sample-hold
attr title  "server busy state, vector"
vector 19  Multitask.queue5  queueLength:vector  ETV
attr interpolationmode  sample-hold
attr title  "queue length, vector"
vector 21  Multitask.queue5  busy:vector  ETV
attr interpolationmode  sample-hold
attr title  "server busy state, vector"
vector 23  Multitask.queue6  queueLength:vector  ETV
attr interpolationmode  sample-hold
attr title  "queue length, vector"
vector 25  Multitask.queue6  busy:vector  ETV
attr interpolationmode  sample-hold
attr title  "server busy state, vector"
vector 27  Multitask.queue7  queueLength:vector  ETV
attr interpolationmode  sample-hold
attr title  "queue length, vector"
vector 29  Multitask.queue7  busy:vector  ETV
attr interpolationmode  sample-hold
attr title  "server busy state, vector"
vector 30  Multitask.resourceCPU  amount:vector  ETV
attr interpolationmode  sample-hold
attr title  "available resource, vector"
vector 12  Multitask.queue3  queueingTime:vector  ETV
attr interpolationmode  none
attr title  "queueing time at dequeue, vector"
attr unit  s
vector 16  Multitask.queue4  queueingTime:vector  ETV
attr interpolationmode  none
attr title  "queueing time at dequeue, vector"
attr unit  s
vector 20  Multitask.queue5  queueingTime:vector  ETV
attr interpolationmode  none
attr title  "queueing time at dequeue, vector"
attr unit  s
vector 28  Multitask.queue7  queueingTime:vector  ETV
attr interpolationmode  none
attr title  "queueing time at dequeue, vector"
attr unit  s
vector 24  Multitask.queue6  queueingTime:vector  ETV
attr interpolationmode  none
attr title  "queueing time at dequeue, vector"
attr unit  s
vector 9  Multitask.allocateQ2  queueingTime:vector  ETV
attr interpolationmode  none
attr title  "queueing time at dequeue, vector"
attr unit  s
vector 0  Multitask.sink  lifeTime:vector  ETV
attr interpolationmode  none
attr title  "lifetime of arrived jobs, vector"
attr unit  s
vector 1  Multitask.sink  totalQueueingTime:vector  ETV
attr interpolationmode  none
attr title  "the total time spent in queues by arrived jobs, vector"
attr unit  s
vector 4  Multitask.sink  queuesVisited:vector  ETV
attr interpolationmode  none
attr title  "the total number of queues visited by arrived jobs, vector"
vector 3  Multitask.sink  totalServiceTime:vector  ETV
attr interpolationmode  none
attr title  "the total time spent  by arrived jobs, vector"
attr unit  s
vector 2  Multitask.sink  totalDelayTime:vector  ETV
attr interpolationmode  none
attr title  "the total time spent in delay nodes by arrived jobs, vector"
attr unit  s
vector 5  Multitask.sink  delaysVisited:vector  ETV
attr interpolationmode  none
attr title  "the total number of delays visited by arrived jobs, vector"
vector 6  Multitask.sink  generation:vector  ETV
attr interpolationmode  none
attr title  "the generation of the arrived jobs, vector"
0	13195	1527.294188849852	1527.2941888499
0	13270	1542.119722381241	1542.1197223812
0	13306	1544.228031277456	1544.2280312775
0	13312	1544.234106180759	1544.2341061808
0	13363	1546.007586408237	1546.0075864082
0	13384	1552.175866697143	1552.1758666971
0	13410	1555.721649354554	1555.7216493546
0	13416	1555.902845076139	1555.9028450761
0	13422	1555.903257278929	1555.9032572789
0	13463	1564.058751940183	1564.0587519402
0	13469	1564.06587552244	1564.0658755224
0	13480	1565.487217222679	1565.4872172227
0	13491	1566.96849492704	1566.968494927
0	13507	1568.773850098635	1568.7738500986
0	13553	1576.201381823022	1576.201381823
0	13564	1576.630537197417	1576.6305371974
0	13575	1576.831178087184	1576.8311780872
0	13591	1581.368569025389	1581.3685690254
0	13617	1586.339518138748	1586.3395181387
0	13632	1586.744409267509	1586.7444092675
0	13728	1593.378541416788	1593.3785414168
0	13775	1596.450832663128	1596.4508326631
0	13787	1599.632693435774	1599.6326934358
0	13814	1602.257343931385	1602.2573439314
0	13846	1615.863726383325	1615.8637263833
1	13195	1527.294188849852	1217.6598679373
1	13270	1542.119722381241	1239.4557593866
1	13306	1544.228031277456	1260.2767144492
1	13312	1544.234106180759	1227.2396354807
1	13363	1546.007586408237	1265.4799602233
1	13384	1552.175866697143	1260.463436947
1	13410	1555.721649354554	1211.5225045395
1	13416	1555.902845076139	1275.297442314
1	13422	1555.903257278929	1195.6447410065
1	13463	1564.058751940183	1138.4559887842
1	13469	1564.06587552244	1264.3790803331
1	13480	1565.487217222679	1275.8336045607
1	13491	1566.96849492704	1286.2096481779
1	13507	1568.773850098635	1215.1421615823
1	13553	1576.201381823022	1280.7627468774
1	13564	1576.630537197417	1235.5011614679
1	13575	1576.831178087184	1292.0565960416
1	13591	1581.368569025389	1257.9338901799
1	13617	1586.339518138748	1239.1839716885
1	13632	1586.744409267509	1345.3909141108
1	13728	1593.378541416788	1257.0038659993
1	13775	1596.450832663128	1269.879102237
1	13787	1599.632693435774	1237.5678275512
1	13814	1602.257343931385	1204.5832141336
1	13846	1615.863726383325	1303.0435109819
2	13195	1527.294188849852	0
2	13270	1542.119722381241	0
2	13306	1544.228031277456	0
2	13312	1544.234106180759	0
2	13363	1546.007586408237	0
2	13384	1552.175866697143	0
2	13410	1555.721649354554	0
2	13416	1555.902845076139	0
2	13422	1555.903257278929	0
2	13463	1564.058751940183	0
2	13469	1564.06587552244	0
2	13480	1565.487217222679	0
2	13491	1566.96849492704	0
2	13507	1568.773850098635	0
2	13553	1576.201381823022	0
2	13564	1576.630537197417	0
2	13575	1576.831178087184	0
2	13591	1581.368569025389	0
2	13617	1586.339518138748	0
2	13632	1586.744409267509	0
2	13728	1593.378541416788	0
2	13775	1596.450832663128	0
2	13787	1599.632693435774	0
2	13814	1602.257343931385	0
2	13846	1615.863726383325	0
3	13195	1527.294188849852	80.603833069277
3	13270	1542.119722381241	113.68487289967
3	13306	1544.228031277456	105.36730679767
3	13312	1544.234106180759	155.86487480873
3	13363	1546.007586408237	126.55145380538
3	13384	1552.175866697143	129.38531413769
3	13410	1555.721649354554	179.16694760344
3	13416	1555.902845076139	105.43006574728
3	13422	1555.903257278929	153.75550211282
3	13463	1564.058751940183	153.66222989508
3	13469	1564.06587552244	155.65588629713
3	13480	1565.487217222679	145.51937841887
3	13491	1566.96849492704	101.49680958369
3	13507	1568.773850098635	132.78618786472
3	13553	1576.201381823022	118.81250963629
3	13564	1576.630537197417	103.65745146068
3	13575	1576.831178087184	106.80249990589
3	13591	1581.368569025389	102.94833128512
3	13617	1586.339518138748	94.071325032964
3	13632	1586.744409267509	52.295681082158
3	13728	1593.378541416788	95.791575987181
3	13775	1596.450832663128	138.16121236033
3	13787	1599.632693435774	148.1287925861
3	13814	1602.257343931385	232.91167215128
3	13846	1615.863726383325	134.05350155414
4	13195	1527.294188849852	30
4	13270	1542.119722381241	39
4	13306	1544.228031277456	35
4	13312	1544.234106180759	66
4	13363	1546.007586408237	52
4	13384	1552.175866697143	51
4	13410	1555.721649354554	46
4	13416	1555.902845076139	41
4	13422	1555.903257278929	59
4	13463	1564.058751940183	62
4	13469	1564.06587552244	59
4	13480	1565.487217222679	63
4	13491	1566.96849492704	34
4	13507	1568.773850098635	56
4	13553	1576.201381823022	47
4	13564	1576.630537197417	45
4	13575	1576.831178087184	47
4	13591	1581.368569025389	35
4	13617	1586.339518138748	30
4	13632	1586.744409267509	27
4	13728	1593.378541416788	49
4	13775	1596.450832663128	50
4	13787	1599.632693435774	58
4	13814	1602.257343931385	71
4	13846	1615.863726383325	67
5	13195	1527.294188849852	0
5	13270	1542.119722381241	0
5	13306	1544.228031277456	0
5	13312	1544.234106180759	0
5	13363	1546.007586408237	0
5	13384	1552.175866697143	0
5	13410	1555.721649354554	0
5	13416	1555.902845076139	0
5	13422	1555.903257278929	0
5	13463	1564.058751940183	0
5	13469	1564.06587552244	0
5	13480	1565.487217222679	0
5	13491	1566.96849492704	0
5	13507	1568.773850098635	0
5	13553	1576.201381823022	0
5	13564	1576.630537197417	0
5	13575	1576.831178087184	0
5	13591	1581.368569025389	0
5	13617	1586.339518138748	0
5	13632	1586.744409267509	0
5	13728	1593.378541416788	0
5	13775	1596.450832663128	0
5	13787	1599.632693435774	0
5	13814	1602.257343931385	0
5	13846	1615.863726383325	0
6	13195	1527.294188849852	0
6	13270	1542.119722381241	0
6	13306	1544.228031277456	0
6	13312	1544.234106180759	0
6	13363	1546.007586408237	0
6	13384	1552.175866697143	0
6	13410	1555.721649354554	0
6	13416	1555.902845076139	0
6	13422	1555.903257278929	0
6	13463	1564.058751940183	0
6	13469	1564.06587552244	0
6	13480	1565.487217222679	0
6	13491	1566.96849492704	0
6	13507	1568.773850098635	0
6	13553	1576.201381823022	0
6	13564	1576.630537197417	0
6	13575	1576.831178087184	0
6	13591	1581.368569025389	0
6	13617	1586.339518138748	0
6	13632	1586.744409267509	0
6	13728	1593.378541416788	0
6	13775	1596.450832663128	0
6	13787	1599.632693435774	0
6	13814	1602.257343931385	0
6	13846	1615.863726383325	0
8	0	0	0
8	172	3.954991712597	1
8	182	4.394899113805	0
8	189	4.474265598709	1
8	201	5.112028333285	2
8	203	6.144434773433	3
8	208	7.216622303686	2
8	213	7.260691241957	1
8	220	7.405812928771	2
8	227	8.000677002017	3
8	229	8.037671105284	4
8	231	8.293825208575	5
8	240	8.715642925127	6
8	245	9.022127375796	7
8	262	10.608045437922	8
8	264	11.568400124697	9
8	266	11.670822419283	10
8	268	12.189650907362	11
8	280	12.824408220684	12
8	282	13.53042047713	13
8	284	13.766707908689	14
8	296	16.852419640545	15
8	298	18.613467131625	16
8	300	19.619539326208	17
8	302	20.085962270942	18
8	304	21.505426438321	19
8	311	28.304019163389	20
8	318	32.317534641095	19
8	323	32.410395855174	18
8	330	32.538164690436	17
8	335	32.579592887142	16
8	361	33.469576725011	15
8	373	34.203973895895	16
8	378	34.316827147659	15
8	385	34.795634431552	16
8	387	37.416959625864	17
8	399	41.147933190138	16
8	404	41.192045848044	15
8	439	43.963769138113	16
8	448	45.933953490467	17
8	453	48.695638923206	18
8	458	49.349773056392	17
8	470	50.885162045757	18
8	472	51.766509132251	19
8	477	51.914935932842	18
8	482	52.075782970891	17
8	512	53.633701947803	16
8	542	59.133943990663	15
8	554	61.105054322538	16
8	596	65.098035399223	15
8	601	65.112559479749	14
8	606	65.123429773867	13
8	616	65.47521560486	14
8	621	65.924899717756	13
8	625	66.11541726612	14
8	638	67.172765400733	13
8	670	70.006959286496	14
8	680	71.130186351971	13
8	685	71.570274387458	12
8	697	72.388139025173	13
8	709	73.74878371928	14
8	711	74.602897852665	15
8	716	74.919291944422	14
8	741	76.604477889377	13
8	745	76.751887751195	14
8	755	76.936931975593	13
8	760	76.955645881313	12
8	770	77.424153876026	13
8	777	79.310241828701	14
8	779	79.399554557986	15
8	786	81.301024648449	16
8	788	82.747736135715	17
8	807	83.672457824258	18
8	812	83.834098133331	19
8	814	83.882176073077	20
8	849	90.321396975226	19
8	859	90.367090097234	18
8	866	91.711329106494	19
8	876	93.208484819001	18
8	886	93.430293713544	17
8	893	93.616521031372	18
8	905	97.170937460542	19
8	922	99.886076042892	20
8	927	100.450781618343	19
8	942	100.870360648181	18
8	952	101.663232677968	17
8	962	103.952215959736	16
8	974	104.661696637171	17
8	981	105.866454978707	18
8	993	106.585465815355	19
8	1020	111.965199060282	18
8	1035	112.580176521535	17
8	1050	112.780013813728	16
8	1073	113.448431412165	15
8	1084	113.848686040996	16
8	1096	114.17382382701	17
8	1102	114.246058630269	16
8	1107	114.278724608499	15
8	1112	114.362900042955	14
8	1117	114.546382199368	13
8	1134	116.968404465158	14
8	1136	117.030080446208	15
8	1146	117.771417068965	14
8	1155	118.173395216351	15
8	1188	119.003314294815	14
8	1198	119.232334073568	13
8	1203	119.618998921075	12
8	1210	119.637454276813	13
8	1222	121.818333894521	14
8	1224	121.97648679069	15
8	1226	125.05895539508	16
8	1228	125.317850621938	17
8	1233	127.9055112749	16
8	1260	135.892461092484	17
8	1262	137.156824390055	18
8	1267	140.243253918048	17
8	1281	140.413299063149	18
8	1286	140.943505760265	19
8	1291	141.400831334419	18
8	1301	141.480960646794	17
8	1343	146.771443133919	18
8	1370	150.69513973562	19
8	1380	152.487545784733	18
8	1389	152.820047311474	19
8	1417	155.859656808304	18
8	1442	158.274510816046	17
8	1449	158.935296149744	18
8	1456	159.443284047277	19
8	1458	160.376122936556	20
8	1475	163.33107737574	19
8	1487	163.746160200435	20
8	1515	168.038195941093	19
8	1550	174.762495993919	18
8	1555	175.163228269389	17
8	1565	175.50097120901	16
8	1572	175.775296961655	17
8	1632	179.064723273372	16
8	1651	181.408700154825	17
8	1656	181.776814369532	16
8	1671	182.322784952758	17
8	1680	182.57310650586	18
8	1722	184.614380531522	19
8	1750	193.933432980192	18
8	1767	194.778487697019	17
8	1792	195.70109248703	16
8	1797	196.044447379451	15
8	1805	196.140354773349	14
8	1822	196.591085898012	13
8	1827	196.623740513997	12
8	1842	196.902996862581	13
8	1852	197.587240938909	12
8	1866	198.688128649945	13
8	1876	199.325978025205	14
8	1888	201.624000309877	15
8	1890	202.135514185117	16
8	1905	204.50522540507	15
8	1920	205.12170023492	14
8	1955	207.616587402165	13
8	1962	208.300926381122	14
8	1964	208.394277897464	15
8	1966	209.067641520559	16
8	1968	209.406881783405	17
8	1970	209.481561591104	18
8	1980	214.040281735196	17
8	1985	214.129265311511	16
8	1992	214.226574393266	17
8	2002	214.36704008631	16
8	2009	214.424392028035	15
8	2018	214.673280085291	16
8	2064	216.954253797104	15
8	2076	217.400335615711	14
8	2094	217.735337710364	13
8	2111	218.66776488061	14
8	2113	218.885655544106	15
8	2115	220.230351027909	16
8	2117	221.556715405762	17
8	2124	222.376630962737	18
8	2131	222.819842249225	19
8	2178	226.891481259063	20
8	2238	238.85388517827	19
8	2273	239.832880907683	18
8	2333	245.180170467956	17
8	2338	245.205413578003	16
8	2353	247.914292023088	15
8	2363	248.311775364406	14
8	2380	248.8607503043	15
8	2392	251.745039620354	16
8	2394	252.02482354644	17
8	2399	254.000170557904	16
8	2414	254.773240639898	15
8	2421	254.870495001564	16
8	2426	255.048225259021	15
8	2431	255.212648538831	14
8	2446	256.444306881668	13
8	2453	256.790561948491	14
8	2458	257.157658180674	13
8	2473	257.76356270134	12
8	2478	257.88916541127	11
8	2487	258.650271476304	12
8	2490	258.668186210131	11
8	2497	259.214550099164	12
8	2511	259.700096610828	13
8	2521	263.675302409396	14
8	2523	263.714601627129	15
8	2525	264.145840310067	16
8	2527	264.502961181306	17
8	2552	266.039221533774	16
8	2562	266.431701994874	15
8	2569	267.176856704355	16
8	2571	269.28121651888	17
8	2588	272.488810901681	18
8	2590	273.597910764899	19
8	2610	274.771288810272	18
8	2632	277.912273157056	19
8	2637	279.424581954512	18
8	2649	282.291131868906	19
8	2664	284.617981175782	18
8	2671	286.699120533645	19
8	2681	288.28893013618	18
8	2691	289.088148568609	17
8	2716	291.493197039337	16
8	2733	292.588399285494	17
8	2760	293.56810534169	18
8	2800	298.003210989464	17
8	2830	300.644326708889	16
8	2865	301.608602876059	15
8	2869	301.653634067983	16
8	2874	301.813817109109	15
8	2879	301.845827131145	14
8	2896	302.418056427971	15
8	2906	302.675141841417	14
8	2919	302.924283264157	13
8	2926	304.322553954484	14
8	2943	307.485879298798	15
8	2955	308.460486936218	16
8	2962	309.299249609714	17
8	2974	310.082553873348	18
8	3001	311.241873163774	17
8	3031	315.063799176427	18
8	3036	315.537970727041	17
8	3053	316.341422661406	16
8	3063	317.099895898827	17
8	3065	319.612769129739	18
8	3077	323.057151851909	19
8	3097	325.540383835424	18
8	3114	327.092939831926	19
8	3131	329.315206503239	20
8	3156	332.915343031369	19
8	3161	332.92455916002	18
8	3168	333.460961903287	19
8	3173	334.585385277329	18
8	3205	337.563971119542	19
8	3207	338.281058110755	20
8	3227	341.345022254471	19
8	3232	341.468452067597	18
8	3237	341.510364230009	17
8	3249	342.201718670259	18
8	3259	346.513981060456	17
8	3286	348.836055919772	18
8	3288	349.544965576989	19
8	3298	352.192450657388	18
8	3303	352.3669996028	17
8	3315	355.514424493962	18
8	3335	356.227166528114	17
8	3340	356.250936792196	16
8	3345	356.278180810821	15
8	3352	356.637207710922	16
8	3359	358.746280216575	17
8	3361	359.970635918713	18
8	3368	364.276004613872	19
8	3373	372.117730463867	18
8	3400	374.52870358774	19
8	3407	374.937964068742	20
8	3437	380.949406478645	19
8	3467	391.546952277257	18
8	3487	397.916632616075	17
8	3492	397.945680027023	16
8	3497	398.078153201827	15
8	3504	400.19107972293	16
8	3509	404.726218627359	15
8	3516	405.077688009901	16
8	3523	406.663576678541	17
8	3525	408.060826929347	18
8	3527	410.896831800067	19
8	3552	414.682907181716	18
8	3557	414.705023506628	17
8	3567	415.378536139618	16
8	3591	419.274545013846	15
8	3602	419.313859871994	14
8	3612	419.541041151825	13
8	3623	419.688366084224	14
8	3636	420.316235612464	15
8	3641	420.491308977057	14
8	3683	422.848352451768	15
8	3685	423.768699734685	16
8	3687	423.983099686525	17
8	3724	427.562862528069	18
8	3726	430.709245691994	19
8	3736	434.074243609823	18
8	3766	436.508049660629	17
8	3806	441.127903847735	16
8	3871	450.91441558334	15
8	3908	458.009621934246	16
8	3958	462.431035289599	15
8	3985	464.451042991108	16
8	4008	467.583278327699	17
8	4019	468.192384320494	18
8	4024	469.38905441586	17
8	4029	469.402130668218	16
8	4034	469.504315488474	15
8	4049	470.186010669783	14
8	4056	472.637223329557	15
8	4063	474.21166044839	16
8	4065	475.264204600148	17
8	4067	475.979546621289	18
8	4092	478.919909431409	17
8	4109	480.312177082234	18
8	4124	480.958394101662	17
8	4141	482.230505363137	18
8	4146	482.284010731849	17
8	4156	482.57552046566	16
8	4233	490.64610749266	17
8	4235	492.865592349939	18
8	4237	501.459778572664	19
8	4242	508.279362117021	18
8	4329	517.839496004181	19
8	4351	521.70025948687	20
8	4386	527.496937522135	19
8	4408	529.140295969497	20
8	4505	539.878918425047	19
8	4513	539.906907348102	18
8	4557	546.795329415092	19
8	4575	547.517930433401	18
8	4579	547.608708301081	19
8	4617	551.090227413798	18
8	4642	554.354480615213	17
8	4652	554.948013021354	16
8	4672	555.450728531361	15
8	4682	557.651985117074	14
8	4687	557.662178210532	13
8	4694	558.06627444795	14
8	4699	558.139937114743	13
8	4719	559.928233777234	12
8	4724	559.956849628224	11
8	4729	560.008527623939	10
8	4734	560.154940512288	9
8	4741	560.336092577042	8
8	4754	560.473750955974	7
8	4771	560.971784707215	8
8	4773	561.562214094503	9
8	4775	561.837331358117	10
8	4797	562.889496345176	11
8	4812	564.042168807928	10
8	4817	564.075537957817	9
8	4839	564.862955616473	10
8	4854	565.146898486926	9
8	4861	565.417970094181	10
8	4863	566.161805055231	11
8	4865	566.931200220679	12
8	4867	567.940537438906	13
8	4877	570.446976483038	12
8	4882	570.541284616748	11
8	4889	570.69980599807	12
8	4891	570.818797493402	13
8	4898	571.145007542806	14
8	4910	572.20046004251	15
8	4920	572.772791417287	14
8	4925	572.792573094936	13
8	4943	573.889104348548	14
8	4954	574.326339213151	15
8	4961	574.573913832789	14
8	4974	574.69303886116	13
8	4981	574.881937706837	14
8	4986	575.098890645761	13
8	5006	576.229698328014	12
8	5023	577.439839387429	13
8	5033	578.42041796799	12
8	5052	580.522100448727	13
8	5057	580.851813791006	14
8	5059	581.734915268099	15
8	5061	585.261096172624	16
8	5063	585.311524021528	17
8	5065	585.954591955052	18
8	5077	587.75792779212	19
8	5079	598.482047344082	20
8	5099	604.5074759971	19
8	5104	604.879193235216	18
8	5119	605.352971021331	17
8	5131	605.876261927874	18
8	5135	606.304957329275	19
8	5150	606.980415883532	18
8	5177	608.510681947342	19
8	5192	610.995848572361	20
8	5227	612.635625250772	19
8	5287	623.70498789859	18
8	5309	626.329836098683	19
8	5346	629.157777630585	18
8	5351	629.17937957095	17
8	5386	631.978386095973	18
8	5398	635.248502002957	19
8	5425	641.529179571465	20
8	5450	643.079099057008	19
8	5474	644.314720137107	18
8	5515	646.165574804117	17
8	5519	646.174850267529	18
8	5544	647.450893979373	19
8	5566	652.247126551855	20
8	5571	653.057428394411	19
8	5576	653.14750103708	18
8	5591	653.52607778348	17
8	5606	653.704615586987	16
8	5635	655.498612198794	17
8	5645	657.557586853821	18
8	5650	659.232705838774	17
8	5655	659.423898614215	16
8	5660	659.448584045662	15
8	5670	659.803414243704	14
8	5682	660.752189046239	15
8	5684	662.071425615706	16
8	5694	663.499540095458	15
8	5701	663.603970457605	16
8	5703	664.969486440085	17
8	5757	673.01090045743	18
8	5770	673.46084432041	17
8	5800	675.408730426601	16
8	5804	675.581688643393	17
8	5839	678.962982368692	18
8	5861	686.865119804855	19
8	5906	695.944760690115	18
8	5911	695.966383967522	17
8	5918	697.663704571955	18
8	5950	700.137782284548	19
8	5960	701.583231207417	18
8	5965	701.608580522455	17
8	5972	701.641783012977	18
8	6017	708.732724905389	17
8	6028	710.264458613646	18
8	6041	710.606517161791	17
8	6048	710.706769948398	18
8	6051	710.855644305529	17
8	6058	711.062747878098	18
8	6068	711.345953486343	17
8	6180	726.447291113157	18
8	6189	727.016349894343	19
8	6192	727.150667431036	18
8	6227	729.977130542391	17
8	6237	730.311019117111	16
8	6246	731.105506958914	17
8	6256	731.541759241013	18
8	6281	734.626211001824	17
8	6291	734.95304330921	16
8	6303	737.325690710227	17
8	6350	745.793553059688	18
8	6352	746.676026102795	19
8	6361	747.08602378565	20
8	6369	747.221836078333	19
8	6379	747.782487802764	18
8	6424	751.832696181472	17
8	6431	751.897509939119	18
8	6451	754.040703666985	17
8	6456	754.125568359396	16
8	6468	754.73304437556	17
8	6483	760.215212666586	16
8	6505	760.742126266693	15
8	6510	760.779504087151	14
8	6520	761.130708938585	15
8	6544	762.022946294917	16
8	6552	762.258220321062	15
8	6559	762.413498792721	16
8	6591	770.468848462237	17
8	6606	771.427495921924	16
8	6613	772.905542527314	17
8	6629	774.027480862142	16
8	6637	774.341086944417	15
8	6675	775.627619990803	14
8	6679	775.785873414853	15
8	6685	775.904249046427	14
8	6690	775.924403382961	13
8	6712	779.703335187106	14
8	6719	781.403714154609	15
8	6731	787.706180792747	16
8	6753	790.521863371879	17
8	6803	795.246848777593	16
8	6813	796.603868591368	15
8	6820	797.561973622562	16
8	6822	798.743700218922	17
8	6831	799.924116651345	18
8	6836	800.329181558886	19
8	6856	801.374269138368	18
8	6881	803.583170617171	17
8	6888	806.810349084714	18
8	6893	809.536195359719	17
8	6898	809.568714500483	16
8	6903	809.853769624235	15
8	6908	809.985106598427	14
8	6913	810.122830072527	13
8	6920	811.690748161723	14
8	6935	812.569652932154	13
8	6949	813.237147032204	14
8	6952	813.324783828739	13
8	6959	814.383940585461	14
8	6961	814.810241371867	15
8	6971	815.724489754213	14
8	6993	820.727014509675	15
8	6995	821.827300417404	16
8	6997	822.279860004245	17
8	7012	824.028433250136	16
8	7029	825.705428507425	17
8	7031	827.049723398091	18
8	7041	828.980143116226	17
8	7046	829.014691650147	16
8	7056	829.637514121593	15
8	7068	830.686455202155	14
8	7078	831.788891857034	15
8	7080	832.145157802553	16
8	7092	835.236221041524	17
8	7104	838.823630586295	18
8	7111	842.99803782729	19
8	7121	844.244494160186	18
8	7136	846.833549476483	17
8	7143	846.975323718247	18
8	7173	848.490557093787	17
8	7177	848.499901359749	18
8	7180	848.541231637321	17
8	7192	849.197213573319	18
8	7194	849.379972257111	19
8	7199	849.803237965426	18
8	7211	850.131305179896	17
8	7229	850.8100152532	16
8	7251	851.73920439805	17
8	7256	851.865409470473	16
8	7271	852.239641645682	15
8	7291	852.865830468374	14
8	7305	853.491156796549	15
8	7315	855.899067484696	16
8	7317	856.16072432901	17
8	7327	856.543715964535	16
8	7331	856.761987496834	17
8	7336	856.86194881341	18
8	7351	857.411109220676	17
8	7366	858.075687154287	16
8	7371	858.117204516427	15
8	7375	858.345482756974	16
8	7382	858.596647874154	17
8	7384	858.707953019991	18
8	7386	858.814135444499	19
8	7484	867.76864796627	18
8	7494	868.2844609498	17
8	7504	868.612950324867	16
8	7529	869.21022543882	15
8	7541	873.934084308714	16
8	7543	874.056336416055	17
8	7545	874.114709918331	18
8	7547	874.494700728757	19
8	7569	877.176386417791	20
8	7604	880.133541478136	19
8	7639	882.821391007796	18
8	7659	887.352385393935	17
8	7664	887.377897595985	16
8	7679	889.139814318267	15
8	7684	889.348098282078	14
8	7691	889.849881352193	15
8	7711	891.628534863461	14
8	7715	891.799716537271	15
8	7717	891.824746942475	16
8	7722	892.158977765334	15
8	7746	892.863170513131	16
8	7757	893.730096714907	15
8	7782	895.541480206487	14
8	7794	896.232942677245	13
8	7807	896.691129953732	12
8	7814	897.132279983434	13
8	7816	897.183422614815	14
8	7823	897.495663405751	15
8	7843	898.349965227782	14
8	7855	898.922299438985	13
8	7865	900.158463445296	14
8	7877	901.403204408377	15
8	7884	903.072488391199	16
8	7896	904.282996980766	17
8	7901	905.045665364153	16
8	7941	908.413634104325	15
8	7963	910.392339531838	16
8	7970	915.15328915105	17
8	7972	915.389106385393	18
8	7979	923.062505663799	19
8	7994	925.066881623256	18
8	8024	928.10142281576	17
8	8041	929.996205757895	18
8	8046	930.23902537619	17
8	8051	930.250698410821	16
8	8056	930.361960568922	15
8	8077	931.198501200646	16
8	8079	931.299499650361	17
8	8107	936.525774662263	18
8	8109	937.206004501727	19
8	8119	939.113231760014	18
8	8161	943.257488452603	19
8	8168	945.33275544043	20
8	8273	953.688436375674	19
8	8335	958.4311466779	20
8	8350	970.77699182214	19
8	8370	971.367325192617	18
8	8382	972.100587771093	19
8	8391	975.660215043456	20
8	8414	978.860134027983	19
8	8419	978.974266814496	18
8	8449	981.570417646153	17
8	8486	990.460850668381	18
8	8491	990.779060332542	17
8	8496	990.835844616425	16
8	8506	991.051248653916	15
8	8510	991.233841870271	16
8	8513	991.249811214403	15
8	8520	992.580286143491	16
8	8545	994.574341141358	15
8	8566	996.278065980989	16
8	8569	996.349546146916	15
8	8592	997.010295080716	14
8	8604	997.45183156164	15
8	8619	998.565520416453	14
8	8659	1000.831576392595	13
8	8666	1000.941320353335	12
8	8670	1001.14060582492	13
8	8711	1002.884809506716	12
8	8723	1006.014690602784	13
8	8730	1006.836113071146	14
8	8732	1006.908104055827	15
8	8744	1008.457218687918	16
8	8746	1011.123526314288	17
8	8748	1015.061293368095	18
8	8773	1016.871413944034	17
8	8778	1016.950098078281	16
8	8785	1017.189766066765	15
8	8790	1017.303759279733	14
8	8810	1018.408416021471	15
8	8832	1019.595069215652	16
8	8841	1021.800438638998	17
8	8844	1022.024755528355	16
8	8849	1022.061999640498	15
8	8859	1022.462706166863	14
8	8866	1023.443863840476	15
8	8873	1024.316573985069	16
8	8883	1025.026824038414	15
8	8887	1025.082741637396	16
8	8905	1026.449421004263	15
8	8914	1026.526556956441	16
8	8917	1026.657190436983	15
8	8939	1027.644326780007	16
8	8949	1028.078342407924	15
8	8966	1028.914577706247	16
8	8993	1030.623195288499	17
8	8995	1032.747076610624	18
8	8997	1034.296348671758	19
8	9007	1041.160384684312	18
8	9017	1042.658755528559	17
8	9042	1043.293406881972	16
8	9052	1043.664290546394	15
8	9067	1044.459530917277	14
8	9094	1045.490038890162	15
8	9096	1045.851671849271	16
8	9098	1046.630903373127	17
8	9108	1046.995068173176	16
8	9123	1047.624454764724	15
8	9135	1049.0805331446	16
8	9142	1050.319240344978	17
8	9152	1053.664794812963	16
8	9157	1053.703254232024	15
8	9164	1054.00199694665	14
8	9176	1054.380950142391	15
8	9191	1056.086750909209	16
8	9193	1056.194982324131	17
8	9195	1057.987933257279	18
8	9202	1061.385818790471	19
8	9252	1079.942840989338	18
8	9267	1081.650963864122	17
8	9274	1081.792661459682	18
8	9294	1083.316269546936	17
8	9316	1085.879548242219	18
8	9318	1086.203624400979	19
8	9333	1089.270709621921	18
8	9338	1089.298296191055	17
8	9363	1090.215280173648	16
8	9370	1090.489266289575	17
8	9375	1090.633654063145	16
8	9412	1092.440661240792	15
8	9422	1093.334128477264	16
8	9424	1093.43875800502	17
8	9431	1094.431600582861	18
8	9433	1094.698589583815	19
8	9443	1096.396961666935	18
8	9488	1100.871310382006	17
8	9493	1100.98898245096	16
8	9510	1105.127151096167	17
8	9515	1105.577411301869	16
8	9585	1109.043465847543	15
8	9590	1109.11204275027	14
8	9600	1110.47688821865	13
8	9606	1110.602650722451	14
8	9612	1110.76573304031	13
8	9619	1111.145610908716	14
8	9628	1111.668332713142	15
8	9633	1112.361812657536	16
8	9637	1113.592563893021	17
8	9640	1113.698522123053	16
8	9650	1114.554540070363	15
8	9660	1115.400227881436	14
8	9690	1118.805124450522	13
8	9702	1119.314510459458	14
8	9717	1121.81424771688	13
8	9724	1121.986967925809	14
8	9729	1122.288236078918	13
8	9749	1123.240474140091	12
8	9756	1123.581672816928	13
8	9788	1128.941172023638	14
8	9795	1129.455975685235	15
8	9797	1129.811366408568	16
8	9799	1130.356381093141	17
8	9809	1131.839975502972	16
8	9829	1136.258083125018	15
8	9836	1136.42677208947	16
8	9881	1138.199374350891	15
8	9941	1142.509692314889	14
8	9963	1144.413397171747	15
8	10005	1149.7662889624	16
8	10020	1154.439829415845	15
8	10025	1154.507401850829	14
8	10032	1157.907063958171	15
8	10034	1158.041407498122	16
8	10045	1158.787575415134	17
8	10061	1159.425703723526	16
8	10071	1159.727813825645	15
8	10096	1161.05431534357	14
8	10106	1161.181977848483	13
8	10116	1161.446385749384	12
8	10131	1161.990561504433	11
8	10136	1162.042802732482	10
8	10151	1162.342716895839	9
8	10156	1162.356288316292	8
8	10161	1162.390563520453	7
8	10173	1164.069317691016	8
8	10178	1164.697663851472	7
8	10182	1164.706268316384	8
8	10187	1164.93463209141	9
8	10197	1166.058130609567	8
8	10206	1166.220484738165	9
8	10216	1166.580566517917	10
8	10223	1167.308026719167	11
8	10232	1167.680623854831	12
8	10262	1173.23195503243	13
8	10279	1176.490070766005	14
8	10301	1180.602754671241	15
8	10303	1182.042946906931	16
8	10358	1188.802449611574	15
8	10385	1190.08822478074	16