version 2
run Multitask30-6-20150106-11:37:57-4240
attr configname Multitask30
attr datetime 20150106-11:37:57
attr experiment Multitask30
attr inifile omnetpp.ini
attr iterationvars ""
attr iterationvars2 $repetition=6
attr measurement ""
attr network Multitask
attr processid 4240
attr repetition 6
attr replication #6
attr resultdir results
attr runnumber 6
attr seedset 6

vector 8  Multitask.allocateQ2  queueLength:vector  ETV
attr interpolationmode  sample-hold
attr title  "queue length, vector"
vector 11  Multitask.queue3  queueLength:vector  ETV
attr interpolationmode  sample-hold
attr title  "queue length, vector"
vector 13  Multitask.queue3  busy:vector  ETV
attr interpolationmode  sample-hold
attr title  "server busy state, vector"
vector 15  Multitask.queue4  queueLength:vector  ETV
attr interpolationmode  sample-hold
attr title  "queue length, vector"
vector 17  Multitask.queue4  busy:vector  ETV
attr interpolationmode  sample-hold
attr title  "server busy state, vector"
vector 19  Multitask.queue5  queueLength:vector  ETV
attr interpolationmode  sample-hold
attr title  "queue length, vector"
vector 21  Multitask.queue5  busy:vector  ETV
attr interpolationmode  sample-hold
attr title  "server busy state, vector"
vector 23  Multitask.queue6  queueLength:vector  ETV
attr interpolationmode  sample-hold
attr title  "queue length, vector"
vector 25  Multitask.queue6  busy:vector  ETV
attr interpolationmode  sample-hold
attr title  "server busy state, vector"
vector 27  Multitask.queue7  queueLength:vector  ETV
attr interpolationmode  sample-hold
attr title  "queue length, vector"
vector 29  Multitask.queue7  busy:vector  ETV
attr interpolationmode  sample-hold
attr title  "server busy state, vector"
vector 30  Multitask.resourceCPU  amount:vector  ETV
attr interpolationmode  sample-hold
attr title  "available resource, vector"
vector 12  Multitask.queue3  queueingTime:vector  ETV
attr interpolationmode  none
attr title  "queueing time at dequeue, vector"
attr unit  s
vector 20  Multitask.queue5  queueingTime:vector  ETV
attr interpolationmode  none
attr title  "queueing time at dequeue, vector"
attr unit  s
vector 24  Multitask.queue6  queueingTime:vector  ETV
attr interpolationmode  none
attr title  "queueing time at dequeue, vector"
attr unit  s
vector 28  Multitask.queue7  queueingTime:vector  ETV
attr interpolationmode  none
attr title  "queueing time at dequeue, vector"
attr unit  s
vector 9  Multitask.allocateQ2  queueingTime:vector  ETV
attr interpolationmode  none
attr title  "queueing time at dequeue, vector"
attr unit  s
vector 16  Multitask.queue4  queueingTime:vector  ETV
attr interpolationmode  none
attr title  "queueing time at dequeue, vector"
attr unit  s
vector 0  Multitask.sink  lifeTime:vector  ETV
attr interpolationmode  none
attr title  "lifetime of arrived jobs, vector"
attr unit  s
vector 1  Multitask.sink  totalQueueingTime:vector  ETV
attr interpolationmode  none
attr title  "the total time spent in queues by arrived jobs, vector"
attr unit  s
vector 4  Multitask.sink  queuesVisited:vector  ETV
attr interpolationmode  none
attr title  "the total number of queues visited by arrived jobs, vector"
vector 3  Multitask.sink  totalServiceTime:vector  ETV
attr interpolationmode  none
attr title  "the total time spent  by arrived jobs, vector"
attr unit  s
vector 2  Multitask.sink  totalDelayTime:vector  ETV
attr interpolationmode  none
attr title  "the total time spent in delay nodes by arrived jobs, vector"
attr unit  s
vector 5  Multitask.sink  delaysVisited:vector  ETV
attr interpolationmode  none
attr title  "the total number of delays visited by arrived jobs, vector"
vector 6  Multitask.sink  generation:vector  ETV
attr interpolationmode  none
attr title  "the generation of the arrived jobs, vector"
0	14164	1722.820067087168	1722.8200670872
0	14178	1723.335284575666	1723.3352845757
0	14216	1725.44639495353	1725.4463949535
0	14273	1727.49650026411	1727.4965002641
0	14284	1727.566445315425	1727.5664453154
0	14323	1730.307157641466	1730.3071576415
0	14334	1736.529700136282	1736.5297001363
0	14347	1737.094328731016	1737.094328731
0	14380	1738.271183244199	1738.2711832442
0	14401	1741.218943716834	1741.2189437168
0	14409	1741.275197789534	1741.2751977895
0	14418	1741.547015955194	1741.5470159552
0	14429	1744.564613421655	1744.5646134217
0	14435	1744.642370739739	1744.6423707397
0	14441	1744.830791865853	1744.8307918659
0	14492	1752.286794924979	1752.286794925
0	14528	1759.079056272289	1759.0790562723
0	14551	1759.768893972931	1759.7688939729
0	14557	1759.922360937011	1759.922360937
0	14562	1759.968715920219	1759.9687159202
0	14617	1773.609539547342	1773.6095395473
0	14624	1774.309402509894	1774.3094025099
0	14656	1782.225134862155	1782.2251348622
0	14729	1796.257550751858	1796.2575507519
0	14756	1804.023137409539	1804.0231374095
1	14164	1722.820067087168	1420.3644318823
1	14178	1723.335284575666	1375.2536513936
1	14216	1725.44639495353	1410.4485703621
1	14273	1727.49650026411	1322.7090581245
1	14284	1727.566445315425	1409.3593358433
1	14323	1730.307157641466	1264.8085507182
1	14334	1736.529700136282	1336.453787101
1	14347	1737.094328731016	1459.1807969534
1	14380	1738.271183244199	1405.0109522648
1	14401	1741.218943716834	1389.3924549064
1	14409	1741.275197789534	1446.457753741
1	14418	1741.547015955194	1454.8458730216
1	14429	1744.564613421655	1411.2161787354
1	14435	1744.642370739739	1404.8330657943
1	14441	1744.830791865853	1382.1877251508
1	14492	1752.286794924979	1304.5719895618
1	14528	1759.079056272289	1395.5477094519
1	14551	1759.768893972931	1437.3230717188
1	14557	1759.922360937011	1373.4614699253
1	14562	1759.968715920219	1399.7187313842
1	14617	1773.609539547342	1450.5134977301
1	14624	1774.309402509894	1397.9424656596
1	14656	1782.225134862155	1455.1320214843
1	14729	1796.257550751858	1413.6179022079
1	14756	1804.023137409539	1466.5087921374
2	14164	1722.820067087168	0
2	14178	1723.335284575666	0
2	14216	1725.44639495353	0
2	14273	1727.49650026411	0
2	14284	1727.566445315425	0
2	14323	1730.307157641466	0
2	14334	1736.529700136282	0
2	14347	1737.094328731016	0
2	14380	1738.271183244199	0
2	14401	1741.218943716834	0
2	14409	1741.275197789534	0
2	14418	1741.547015955194	0
2	14429	1744.564613421655	0
2	14435	1744.642370739739	0
2	14441	1744.830791865853	0
2	14492	1752.286794924979	0
2	14528	1759.079056272289	0
2	14551	1759.768893972931	0
2	14557	1759.922360937011	0
2	14562	1759.968715920219	0
2	14617	1773.609539547342	0
2	14624	1774.309402509894	0
2	14656	1782.225134862155	0
2	14729	1796.257550751858	0
2	14756	1804.023137409539	0
3	14164	1722.820067087168	170.09677829019
3	14178	1723.335284575666	159.97816773437
3	14216	1725.44639495353	95.163600529248
3	14273	1727.49650026411	131.26274772992
3	14284	1727.566445315425	117.90640111563
3	14323	1730.307157641466	260.72230756597
3	14334	1736.529700136282	126.44119111479
3	14347	1737.094328731016	145.65295524363
3	14380	1738.271183244199	98.422801763082
3	14401	1741.218943716834	212.07215708185
3	14409	1741.275197789534	108.06959493754
3	14418	1741.547015955194	66.770151772314
3	14429	1744.564613421655	125.97418762908
3	14435	1744.642370739739	172.87168744819
3	14441	1744.830791865853	141.99951542854
3	14492	1752.286794924979	150.6237998218
3	14528	1759.079056272289	217.36190558572
3	14551	1759.768893972931	110.19002393142
3	14557	1759.922360937011	109.76254171478
3	14562	1759.968715920219	77.626913752317
3	14617	1773.609539547342	168.5219947569
3	14624	1774.309402509894	108.72720511101
3	14656	1782.225134862155	117.81191619827
3	14729	1796.257550751858	122.36308002817
3	14756	1804.023137409539	169.40078937197
4	14164	1722.820067087168	72
4	14178	1723.335284575666	58
4	14216	1725.44639495353	49
4	14273	1727.49650026411	53
4	14284	1727.566445315425	55
4	14323	1730.307157641466	88
4	14334	1736.529700136282	54
4	14347	1737.094328731016	67
4	14380	1738.271183244199	45
4	14401	1741.218943716834	72
4	14409	1741.275197789534	51
4	14418	1741.547015955194	44
4	14429	1744.564613421655	52
4	14435	1744.642370739739	55
4	14441	1744.830791865853	51
4	14492	1752.286794924979	53
4	14528	1759.079056272289	67
4	14551	1759.768893972931	48
4	14557	1759.922360937011	51
4	14562	1759.968715920219	32
4	14617	1773.609539547342	66
4	14624	1774.309402509894	46
4	14656	1782.225134862155	41
4	14729	1796.257550751858	52
4	14756	1804.023137409539	61
5	14164	1722.820067087168	0
5	14178	1723.335284575666	0
5	14216	1725.44639495353	0
5	14273	1727.49650026411	0
5	14284	1727.566445315425	0
5	14323	1730.307157641466	0
5	14334	1736.529700136282	0
5	14347	1737.094328731016	0
5	14380	1738.271183244199	0
5	14401	1741.218943716834	0
5	14409	1741.275197789534	0
5	14418	1741.547015955194	0
5	14429	1744.564613421655	0
5	14435	1744.642370739739	0
5	14441	1744.830791865853	0
5	14492	1752.286794924979	0
5	14528	1759.079056272289	0
5	14551	1759.768893972931	0
5	14557	1759.922360937011	0
5	14562	1759.968715920219	0
5	14617	1773.609539547342	0
5	14624	1774.309402509894	0
5	14656	1782.225134862155	0
5	14729	1796.257550751858	0
5	14756	1804.023137409539	0
6	14164	1722.820067087168	0
6	14178	1723.335284575666	0
6	14216	1725.44639495353	0
6	14273	1727.49650026411	0
6	14284	1727.566445315425	0
6	14323	1730.307157641466	0
6	14334	1736.529700136282	0
6	14347	1737.094328731016	0
6	14380	1738.271183244199	0
6	14401	1741.218943716834	0
6	14409	1741.275197789534	0
6	14418	1741.547015955194	0
6	14429	1744.564613421655	0
6	14435	1744.642370739739	0
6	14441	1744.830791865853	0
6	14492	1752.286794924979	0
6	14528	1759.079056272289	0
6	14551	1759.768893972931	0
6	14557	1759.922360937011	0
6	14562	1759.968715920219	0
6	14617	1773.609539547342	0
6	14624	1774.309402509894	0
6	14656	1782.225134862155	0
6	14729	1796.257550751858	0
6	14756	1804.023137409539	0
8	0	0	0
8	93	4.034368730274	1
8	100	4.085817334961	2
8	102	4.622091317744	3
8	104	4.942562866465	4
8	111	5.426731319955	5
8	113	5.765051002832	6
8	115	6.593888740252	7
8	117	7.298867134418	8
8	119	7.54634064486	9
8	121	7.558664882231	10
8	123	9.039967862789	11
8	125	9.377023760007	12
8	127	9.74236178748	13
8	137	12.483703811544	12
8	149	13.313597047074	13
8	151	14.065499960636	14
8	153	15.010503706397	15
8	180	17.216503204919	16
8	182	17.441659384431	17
8	189	22.33620257814	18
8	234	24.759735314118	17
8	266	29.464865216569	18
8	271	29.844202950014	17
8	301	33.929473796739	16
8	313	34.21461056324	15
8	338	34.867459170634	14
8	346	34.961293990051	13
8	370	36.069645522946	14
8	393	37.515664053799	13
8	403	37.72412607497	12
8	410	38.763323081212	13
8	417	39.478301804072	14
8	422	39.583061521178	13
8	454	41.085885103804	14
8	456	41.442294476178	15
8	458	42.016281113268	16
8	460	43.065839306117	17
8	492	45.405723761976	16
8	502	45.811814331835	17
8	504	45.997338453892	18
8	519	46.588794650424	17
8	536	47.282059262854	18
8	573	49.622018220928	19
8	648	59.363910004365	18
8	653	59.399130087849	17
8	658	59.457864032689	16
8	670	59.81453443441	17
8	689	62.79446629186	18
8	697	62.987032392726	17
8	702	63.08833552471	16
8	707	63.119883807696	15
8	717	63.350492900151	14
8	724	64.141655185042	15
8	728	65.670935773631	16
8	745	66.18427957193	15
8	771	67.424493807679	14
8	801	69.570209761159	13
8	808	70.706992855592	14
8	810	74.082441137759	15
8	812	74.228568788021	16
8	817	74.667584300231	15
8	824	76.452923035407	16
8	839	78.264868942913	15
8	856	79.382280126694	16
8	858	80.380734200049	17
8	860	80.674415696554	18
8	867	81.661903712002	19
8	902	89.451199498809	18
8	937	93.344497732892	17
8	944	93.685364642535	18
8	946	93.787283301783	19
8	1006	102.321304134609	18
8	1011	102.353298125665	17
8	1046	107.371687774106	16
8	1086	110.380838113768	15
8	1116	111.95631265102	14
8	1128	112.803687992416	15
8	1135	113.636783076307	16
8	1137	113.764001881014	17
8	1139	115.474085138815	18
8	1146	116.618117448393	19
8	1166	122.783131257274	18
8	1178	125.765905251219	19
8	1215	129.763299795483	20
8	1220	131.504476333767	19
8	1230	131.679242195738	18
8	1250	132.684743326908	17
8	1260	133.401916324371	16
8	1267	133.636943376163	17
8	1304	140.405909325832	16
8	1327	144.148716988354	15
8	1334	146.167936273659	16
8	1391	149.262437462766	17
8	1396	149.552769094326	16
8	1418	150.671047992114	15
8	1423	150.987518236479	14
8	1428	151.092953193162	13
8	1438	151.610650109149	14
8	1445	152.035819629046	15
8	1450	152.981602562406	14
8	1455	153.014922323908	13
8	1462	154.812992480881	14
8	1477	155.380908658249	13
8	1484	156.560346330838	14
8	1489	157.676980633031	13
8	1501	158.001727147324	14
8	1510	159.228866120236	15
8	1514	159.337871085535	16
8	1555	161.939481707957	15
8	1562	162.192657642414	16
8	1577	162.653816881149	15
8	1584	162.845455260522	14
8	1592	163.100905161572	13
8	1617	164.582878143282	12
8	1637	166.464020157472	11
8	1641	166.488251047768	12
8	1661	167.358921837914	13
8	1678	168.025798122255	14
8	1680	168.508856906282	15
8	1682	168.902667432288	16
8	1697	172.429470719478	15
8	1704	172.661088184592	16
8	1711	177.103694205549	17
8	1713	179.522573157727	18
8	1715	179.706881100563	19
8	1795	205.193816914316	18
8	1807	205.626801221257	19
8	1824	207.06119879001	18
8	1832	207.113987165127	17
8	1861	208.865757664048	18
8	1874	209.16409576672	17
8	1904	210.163288400488	16
8	1911	210.222875379863	17
8	1916	210.92159520964	16
8	1938	212.07435688646	17
8	1970	214.108901172812	18
8	1985	217.321359701286	17
8	1992	217.652818987182	18
8	1997	217.896440931019	17
8	2014	220.114214701734	18
8	2016	220.763065297437	19
8	2018	221.182915639971	20
8	2023	223.39172609115	19
8	2038	225.105056209465	18
8	2043	225.133318826525	17
8	2050	226.281600867487	18
8	2057	227.362726135853	19
8	2092	231.459002360922	18
8	2099	231.653236610578	19
8	2109	233.803267248235	18
8	2124	237.661024426359	17
8	2139	238.315838496733	16
8	2151	238.892369360108	15
8	2171	239.491138390145	16
8	2173	239.518522234283	17
8	2190	243.880517106184	18
8	2205	250.199425891707	17
8	2240	255.043123751889	16
8	2247	255.207626567176	15
8	2252	255.410186305998	14
8	2280	256.307686542714	13
8	2287	256.65212955486	14
8	2292	257.000850094529	13
8	2322	258.150129921448	12
8	2332	258.290109628314	11
8	2337	258.322876950132	10
8	2364	260.546969886282	11
8	2374	262.457673705763	10
8	2378	262.471959268713	11
8	2388	262.76060589922	12
8	2393	262.985408865233	11
8	2416	263.853116224495	12
8	2419	263.979457637712	11
8	2432	264.521105517551	12
8	2452	265.573025278094	11
8	2462	265.899880196086	10
8	2477	266.381058412199	9
8	2489	267.139735957934	10
8	2491	267.370936317241	11
8	2498	268.178946394576	12
8	2500	268.474515455174	13
8	2502	268.639849317802	14
8	2504	268.939651208475	15
8	2516	272.514742636833	16
8	2518	274.303499224137	17
8	2520	274.458986093794	18
8	2590	289.039899495581	17
8	2615	290.097889907564	16
8	2637	292.030720238107	17
8	2652	294.830373307554	16
8	2694	302.954570983354	17
8	2699	303.164410292336	16
8	2721	306.65603919098	17
8	2728	309.057720843957	18
8	2785	315.870329290714	19
8	2795	317.197261127281	18
8	2807	321.084440823539	19
8	2822	323.95260414711	18
8	2827	323.989013782029	17
8	2842	324.205988874578	16
8	2857	324.607993817914	15
8	2862	324.624018739123	14
8	2872	324.760265291674	13
8	2884	329.65612340377	14
8	2886	329.861946802756	15
8	2888	330.683740729309	16
8	2908	333.039573227347	15
8	2913	333.068460699234	14
8	2918	333.096226716565	13
8	2928	333.231360776443	12
8	2935	333.544772007315	13
8	2937	336.320685810138	14
8	2944	340.950918094395	15
8	2949	341.033844296458	14
8	2971	342.535360385997	15
8	2983	344.431369748365	16
8	2987	344.647037800394	17
8	2995	345.575967023943	16
8	3000	345.75635230866	15
8	3005	345.811197692938	14
8	3019	347.454182397689	15
8	3021	347.626776671427	16
8	3043	349.065014241936	17
8	3061	351.514062963637	16
8	3093	356.206589131217	17
8	3100	360.131201613463	18
8	3105	360.50618477083	17
8	3120	362.647631212558	16
8	3125	362.889070605098	15
8	3135	362.995594152715	14
8	3147	364.551892187317	15
8	3157	366.059050319276	14
8	3174	367.395854815277	15
8	3179	370.402372573715	14
8	3186	372.604567821108	15
8	3188	372.821981444009	16
8	3200	374.547953217465	17
8	3210	375.324583889435	16
8	3217	375.770482698647	17
8	3219	377.249429713775	18
8	3221	379.163238893699	19
8	3226	380.042593417989	18
8	3233	380.132714274065	19
8	3248	382.30662514798	18
8	3265	383.225736517441	19
8	3307	390.28134028309	20
8	3322	393.458396710363	19
8	3342	394.848797004061	18
8	3364	396.756117017134	19
8	3369	397.429263223903	18
8	3381	399.985846517993	19
8	3383	402.169936299104	20
8	3473	419.261551724862	19
8	3488	420.418128355464	18
8	3500	420.780765648429	17
8	3543	422.564289722318	16
8	3547	422.674911805571	17
8	3555	423.304884009598	16
8	3567	424.541737229199	17
8	3607	436.141758999439	16
8	3617	437.561683977072	15
8	3627	437.689925508698	14
8	3641	438.285436086565	15
8	3644	438.298949489793	14
8	3654	438.40522896228	13
8	3676	440.309089552154	14
8	3683	441.184899412701	15
8	3685	441.393062698783	16
8	3710	442.981208184435	15
8	3722	446.12543810105	16
8	3729	447.004034088857	17
8	3759	452.076318214935	16
8	3766	452.532426895207	17
8	3768	455.745986403816	18
8	3782	458.858039601749	19
8	3800	460.454771309501	18
8	3805	460.572847461271	17
8	3827	462.769070199478	16
8	3854	465.420609435333	17
8	3859	467.720675053959	18
8	3888	472.857968695331	19
8	3891	472.927012586879	18
8	3896	472.954462153382	17
8	3901	472.996656137458	16
8	3913	474.228183582221	17
8	3915	474.535042262044	18
8	3942	481.531088657326	19
8	3952	483.056902400317	18
8	4004	486.545255958284	19
8	4046	495.102247925703	20
8	4066	498.532992103021	19
8	4076	501.608324231749	18
8	4086	502.042055316684	17
8	4111	505.693615649605	16
8	4118	505.975916814	17
8	4120	506.260807200458	18
8	4122	506.292358984831	19
8	4127	507.267657250759	18
8	4132	507.439329811242	17
8	4153	508.935747661435	18
8	4164	509.202291954097	17
8	4184	509.866902393643	16
8	4194	511.448979310071	15
8	4206	513.114691757679	16
8	4216	514.534165346151	15
8	4238	516.660925893268	16
8	4240	517.420869440282	17
8	4242	518.193452628482	18
8	4297	528.503362614958	17
8	4314	528.930486492183	16
8	4326	529.621211612078	15
8	4331	529.627641987088	14
8	4364	531.287325560479	15
8	4399	536.1298372113	14
8	4414	537.598703674589	13
8	4443	540.313032321888	14
8	4446	540.313496762775	13
8	4463	541.243907743845	14
8	4468	541.905478825732	13
8	4497	542.992762264094	14
8	4536	548.47006863284	15
8	4549	549.38353756951	16
8	4554	549.78026615989	15
8	4566	549.924349239842	14
8	4589	551.106372339474	13
8	4596	551.213906268571	14
8	4600	551.490210610241	15
8	4603	551.711335311327	14
8	4623	552.406373957491	13
8	4675	556.345108847788	14
8	4677	556.913812726485	15
8	4679	557.209172635066	16
8	4681	557.597245552762	17
8	4688	562.385089792319	18
8	4713	564.342108766044	17
8	4722	564.714641234609	18
8	4732	566.410360700904	19
8	4737	566.483090871882	18
8	4762	570.796513867601	17
8	4767	570.900001255428	16
8	4817	574.540534483221	15
8	4824	575.435108258897	16
8	4826	577.035735966468	17
8	4828	577.164344943853	18
8	4850	582.103227734431	19
8	4937	589.742787138928	20
8	4954	589.97846732519	19
8	4979	591.962406505161	18
8	4996	592.49644149474	17
8	5029	595.064308913132	16
8	5038	595.128942154093	17
8	5061	597.023314237341	18
8	5063	600.36543490004	19
8	5083	603.060208579772	18
8	5102	603.907312599663	19
8	5137	611.402768364599	20
8	5142	611.995940107753	19
8	5149	612.156498557707	20
8	5161	612.451121250718	19
8	5169	612.706561897593	18
8	5181	615.283026518575	19
8	5216	621.344326064141	18
8	5226	621.570588979665	17
8	5233	621.671211139358	18
8	5284	624.690310399127	17
8	5292	624.822178736598	16
8	5297	625.055480405051	15
8	5306	625.231178556112	16
8	5325	625.856489987451	15
8	5330	625.85725441999	14
8	5337	626.4025028699	15
8	5357	629.349877898568	14
8	5362	629.399586210771	13
8	5367	629.417704828852	12
8	5376	629.562549554832	13
8	5384	630.251775633699	12
8	5396	631.328979319411	13
8	5398	634.38636928394	14
8	5407	638.061186416841	15
8	5417	640.600982426736	16
8	5419	641.803846686751	17
8	5426	643.940481862631	18
8	5461	649.672610708539	17
8	5485	650.715625736956	18
8	5508	651.448633842347	17
8	5513	651.462780197377	16
8	5523	652.240369721012	15
8	5553	653.586962527324	14
8	5557	653.670223709196	15
8	5570	653.983517420842	14
8	5606	655.37673433096	15
8	5612	655.653187626143	14
8	5626	658.04156845733	15
8	5629	658.121954081779	14
8	5636	659.878978435941	15
8	5638	660.702874577754	16
8	5645	661.53229056872	17
8	5655	663.703647438049	16
8	5685	665.760466482402	15
8	5692	666.067448998601	16
8	5699	668.194146994047	17
8	5706	668.539570574182	18
8	5726	669.250937394814	17
8	5781	672.622317219638	16
8	5810	673.544093749134	15
8	5833	676.132366708045	16
8	5840	679.851544148357	17
8	5875	683.63053364632	16
8	5907	692.795935606544	17
8	5974	701.005894619808	18
8	5984	703.493516620303	17
8	5996	704.869276621137	18
8	6001	705.724340486635	17
8	6023	708.461736399006	18
8	6030	710.377722929684	19
8	6037	711.876524754442	20
8	6042	712.700747291027	19
8	6066	716.181510245086	20
8	6114	726.804062005567	19
8	6154	729.976517785098	18
8	6171	730.572623393264	19
8	6173	730.647936853222	20
8	6193	735.738485654012	19
8	6212	739.292334160897	20
8	6215	739.441710021173	19
8	6225	739.538938119773	18
8	6262	742.038858209128	19
8	6294	747.014467843798	20
8	6324	755.289376427044	19
8	6364	761.478827245222	18
8	6386	762.890420749148	17
8	6404	763.815605692987	16
8	6411	764.392812129618	17
8	6435	767.17494098145	18
8	6445	770.375505868408	19
8	6495	774.533211482073	18
8	6504	775.84390819912	19
8	6622	801.73769080637	18
8	6637	802.313017637976	17
8	6649	802.777492793965	18
8	6654	803.47019622084	17
8	6694	808.774226452561	16
8	6699	808.786502840557	15
8	6711	812.656197626723	16
8	6753	819.611904511378	17
8	6763	820.111934316243	16
8	6772	820.338806997185	17
8	6792	820.940795804409	18
8	6819	833.835072064746	19
8	6824	835.119289994596	18
8	6831	840.970633331613	19
8	6846	843.069907162806	18
8	6863	845.081023623691	17
8	6891	847.120406872878	16
8	6896	847.238624580984	15
8	6905	847.580510594956	16
8	6908	847.662916779118	15
8	6915	848.229106391585	16
8	6917	849.219557402764	17
8	6929	857.083943911551	18
8	6934	858.173901478735	17
8	6944	858.448587620898	16
8	6949	858.525040241321	15
8	6986	861.546973685837	16
8	6991	861.918776837216	15
8	7033	865.1172828931	16
8	7035	865.696210876853	17
8	7055	868.259326152589	16
8	7087	871.751093664223	17
8	7107	875.211466300328	16
8	7112	875.217438579401	15
8	7119	876.070924008973	16
8	7121	876.800894873639	17
8	7163	880.575966619574	18
8	7165	880.982854453855	19
8	7167	881.397452357718	20
8	7207	884.287354999018	19
8	7227	885.19578381854	18
8	7246	885.639558176686	17
8	7262	886.050488468205	16
8	7282	886.436159231553	15
8	7297	887.206244735972	14
8	7304	887.334511484886	15
8	7306	887.488385879628	16
8	7346	889.094122501223	15
8	7391	891.463682418271	14
8	7398	891.678918982219	15
8	7408	897.010303661782	14
8	7425	898.205659732199	15
8	7442	902.775224413241	16
8	7444	902.998750454217	17
8	7481	914.370772844399	18
8	7491	915.474536249697	17
8	7507	916.862107816296	18
8	7523	917.359469906684	17
8	7538	917.681260606201	16
8	7545	918.165517249436	17
8	7549	918.484733596034	18
8	7552	918.489485346	17
8	7579	920.418586007367	18
8	7619	928.043843396368	17
8	7629	929.102506428824	16
8	7663	929.962139457739	15
8	7679	930.186427657714	14
8	7694	930.763569239744	13
8	7703	930.997102274076	12
8	7746	934.135927571898	13
8	7753	935.390706083663	14
8	7758	935.479584650517	13
8	7780	936.047793527914	12
8	7805	937.331658451092	13
8	7812	940.030110424272	14
8	7814	940.21631657422	15
8	7819	940.334283183904	14
8	7829	941.094857245805	13
8	7851	942.221978790275	14
8	7860	943.254800048228	15
8	7865	943.745584447984	16
8	7895	947.886007865108	15
8	7902	948.572345619984	16
8	7914	949.949191342298	17
8	7921	950.380695030627	18
8	7928	950.546166260409	19
8	7953	958.651733030158	18
8	7968	959.335399846881	17
8	7975	959.757146519036	18
8	7990	962.749396886417	17
8	7997	962.948883800753	18
8	7999	963.351676383735	19
8	8006	964.994141591345	20
8	8011	966.912455171107	19
8	8016	967.017065581135	18
8	8028	971.055087709356	19
8	8053	973.76026722854	18
8	8058	973.805272292701	17
8	8095	977.868206253145	18
8	8120	981.977453866921	17
8	8135	982.725299570343	16
8	8147	983.031386561147	17
8	8159	983.738014808316	18
8	8164	983.810723922567	17
8	8221	986.613111610027	16
8	8234	986.770599056637	15
8	8271	987.67045902685	14
8	8281	988.013566666505	15
8	8286	988.039498272235	14
8	8293	988.66443184616	15
8	8295	988.682437801796	16
8	8325	989.716487090344	15
8	8345	990.986716978342	14
8	8352	992.256654384954	15
8	8369	995.70202942576	16
8	8371	995.888350799859	17
8	8373	996.054582655638	18
8	8383	996.480842056135	17
8	8395	996.767050322788	16
8	8400	996.953386664116	15
8	8405	997.107125576539	14
8	8440	1003.130743334288	15
8	8442	1003.584480162954	16
8	8444	1003.815711528059	17
8	8446	1004.029653632168	18
8	8448	1007.687467505939	19
8	8473	1014.434477853145	18
8	8478	1014.4450304833	17
8	8488	1015.025513605763	16
8	8492	1015.103847984977	17
8	8562	1023.52739500789	18
8	8618	1030.317306750751	19
8	8639	1031.061151452893	18
8	8644	1031.165767853537	17
8	8664	1031.57015531003	16
8	8676	1032.180663350906	15
8	8681	1032.584081404786	14
8	8689	1032.746850608213	13
8	8698	1033.67139557199	14
8	8723	1035.149776428025	13
8	8737	1035.514937499139	14
8	8739	1035.53819752451	15
8	8744	1035.633230994552	16
8	8756	1036.037027504953	17
8	8776	1038.815331187548	18
8	8798	1043.186252818624	17
8	8811	1043.439260825199	16
8	8833	1047.141308906723	17
8	8835	1048.367676566396	18
8	8840	1049.105607845663	17
8	8849	1049.358916138622	18
8	8852	1049.364636560927	17
8	8861	1049.958998151351	18
8	8864	1050.050233770815	17
8	8876	1051.172767534023	18
8	8881	1051.338259343842	17
8	8891	1051.624863610878	16
8	8896	1051.73437167886	15
8	8901	1051.736824062805	14
8	8908	1051.872278869578	15
8	8913	1051.899490969279	14
8	8918	1052.221632462996	13
8	8925	1052.551746949325	14
8	8927	1052.716498271614	15
8	8929	1053.028704608182	16
8	8934	1054.778591631046	15
8	8939	1054.927674590379	14
8	8944	1054.942854109156	13
8	8976	1057.834208342383	14
8	8986	1059.394046610546	13
8	8993	1059.523372669554	14
8	8998	1060.291008653141	13
8	9005	1062.103962612995	14
8	9015	1063.416644014203	13
8	9027	1064.392990374943	14
8	9042	1064.902893710625	13
8	9052	1065.425599432582	12
8	9057	1065.540733785193	11
8	9067	1065.93025066523	10
8	9071	1065.959573838567	11
8	9079	1066.047814735132	10
8	9092	1066.346107058992	11
8	9100	1066.443843924829	12
8	9105	1067.394098836063	13
8	9112	1069.038977260167	14
8	9117	1070.829919566459	13
8	9121	1070.872770766728	14
8	9124	1071.00214986077	13
8	9129	1071.099657295102	12
8	9139	1071.454403376228	11
8	9146	1071.637899261542	12
8	9173	1074.910810175364	13
8	9182	1076.621977240276	14
8	9207	1079.032613209767	15
8	9229	1083.13793460696	16
8	9281	1086.090785543482	15
8	9296	1086.508572347088	14
8	9309	1086.883935574605	13
8	9326	1087.638665636147	14
8	9336	1087.812735971377	13
8	9355	1088.455914495272	14
8	9360	1088.714245368263	15
8	9367	1089.76212794884	16
8	9399	1095.773623928384	17
8	9411	1097.849951466951	18
8	9416	1098.749636850431	17
8	9425	1099.06528943336	18
8	9428	1099.094366705318	17
8	9433	1099.182815733864	16
8	9445	1100.416786819484	17
8	9480	1108.108894971349	16
8	9484	1108.129382340684	17
8	9511	1111.061866399646	18
8	9514	1111.129159551084	17
8	9519	1111.201257138061	16
8	9536	1111.774722927313	17
8	9578	1118.731902493193	18
8	9630	1128.426405483019	19
8	9640	1135.01992978502	18
8	9647	1135.231194436281	19
8	9697	1147.596165830996	18
8	9714	1148.628976910264	19
8	9723	1150.683639933584	20
8	9731	1150.944696335309	19
8	9736	1151.049919198181	18
8	9751	1151.516369298936	17
8	9781	1155.605641616906	16
8	9841	1159.889404759986	15
8	9851	1160.146117073327	14
8	9863	1161.703013970665	15
8	9870	1162.911239284351	16
8	9897	1165.143078481754	17
8	9902	1166.994616606657	16
8	9909	1167.119908023774	17
8	9921	1175.123407661211	18
8	9953	1180.180506469874	19
8	9963	1180.797140360813	18
8	9970	1181.460132666684	19
8	9975	1181.650639761249	18
8	10005	1184.721873011788	17
8	10012	1185.874497350611	18
8	10014	1186.761458352481	19
8	10034	1190.570059730951	18
8	10081	1192.77975791724	19
8	10083	1193.787883119386	20
8	10103	1195.401926714329	19
8	10130	1198.511788475491	20
8	10135	1198.887204465853	19
8	10140	1198.975722412229	18
8	10200	1207.189102157607	17
8	10220	1208.821726477221	16
8	10230	1209.015884325669	15
8	10235	1209.217354926976	14
8	10250	1209.914524065879	13
8	10254	1210.111165354405	14
8	10264	1212.042498497657	15
8	10266	1213.59304782587	16
8	10268	1214.872994312231	17
8	10293	1219.581363735764	16
8	10310	1220.475744759125	17
8	10322	1221.871264541612	18
8	10337	1227.50619193687	17
8	10342	1227.553952149439	16
8	10354	1228.274836403269	17
8	10361	1231.022844269133	18
8	10373	1232.658159974126	19
8	10388	1233.3155113652	18
8	10393	1233.448711965542	17
8	10413	1240.075747009193	16
8	10420	1240.623199217945	17
8	10422	1242.966621731945	18
8	10471	1249.976498856582	19
8	10489	1253.535938806147	18
8	10514	1255.10024948015	17
8	10539	1255.77986813283	16
8	10561	1259.622756824499	17
8	10566	1260.112052673475	16
8	10578	1267.39695923812	17
8	10617	1273.390919340204	18
8	10627	1275.854763797506	19
8	10672	1284.297775143528	18
8	10681	1285.014710337373	17
8	10694	1285.613672382799	18
8	10699	1286.687165470512	17
8	10731	1288.838335700397	18
8	10771	1292.125211005977	17
8	10776	1292.496052227118	16
8	10793	1293.330625610391	17
8	10798	1294.017340778244	16
8	10815	1294.526642458309	17
8	10817	1294.569410582112	18
8	10827	1294.970980303108	17
8	10831	1295.024668003769	18
8	10839	1295.162469600977	17
8	10873	1297.18767468732	18
8	10903	1300.369994431254	17
8	10921	1301.526205637546	16
8	10936	1302.043647900104	15
8	10958	1306.036862843642	16
8	10965	1306.753668963679	17
8	10992	1310.064288575709	18
8	11001	1310.670975225747	19
8	11009	1311.025828709935	18
8	11014	1311.042483904418	17
8	11019	1311.13197103547	16
8	11034	1312.107692705832	15
8	11044	1312.564654355448	14
8	11061	1313.138523780604	13
8	11069	1313.293031884783	12
8	11074	1313.338932699349	11
8	11078	1313.375453692064	12
8	11095	1313.885476975854	13