version 2
run Multitask30-23-20150106-11:37:59-4632
attr configname Multitask30
attr datetime 20150106-11:37:59
attr experiment Multitask30
attr inifile omnetpp.ini
attr iterationvars ""
attr iterationvars2 $repetition=23
attr measurement ""
attr network Multitask
attr processid 4632
attr repetition 23
attr replication #23
attr resultdir results
attr runnumber 23
attr seedset 23

vector 8  Multitask.allocateQ2  queueLength:vector  ETV
attr interpolationmode  sample-hold
attr title  "queue length, vector"
vector 11  Multitask.queue3  queueLength:vector  ETV
attr interpolationmode  sample-hold
attr title  "queue length, vector"
vector 13  Multitask.queue3  busy:vector  ETV
attr interpolationmode  sample-hold
attr title  "server busy state, vector"
vector 15  Multitask.queue4  queueLength:vector  ETV
attr interpolationmode  sample-hold
attr title  "queue length, vector"
vector 17  Multitask.queue4  busy:vector  ETV
attr interpolationmode  sample-hold
attr title  "server busy state, vector"
vector 19  Multitask.queue5  queueLength:vector  ETV
attr interpolationmode  sample-hold
attr title  "queue length, vector"
vector 21  Multitask.queue5  busy:vector  ETV
attr interpolationmode  sample-hold
attr title  "server busy state, vector"
vector 23  Multitask.queue6  queueLength:vector  ETV
attr interpolationmode  sample-hold
attr title  "queue length, vector"
vector 25  Multitask.queue6  busy:vector  ETV
attr interpolationmode  sample-hold
attr title  "server busy state, vector"
vector 27  Multitask.queue7  queueLength:vector  ETV
attr interpolationmode  sample-hold
attr title  "queue length, vector"
vector 29  Multitask.queue7  busy:vector  ETV
attr interpolationmode  sample-hold
attr title  "server busy state, vector"
vector 30  Multitask.resourceCPU  amount:vector  ETV
attr interpolationmode  sample-hold
attr title  "available resource, vector"
vector 12  Multitask.queue3  queueingTime:vector  ETV
attr interpolationmode  none
attr title  "queueing time at dequeue, vector"
attr unit  s
vector 16  Multitask.queue4  queueingTime:vector  ETV
attr interpolationmode  none
attr title  "queueing time at dequeue, vector"
attr unit  s
vector 28  Multitask.queue7  queueingTime:vector  ETV
attr interpolationmode  none
attr title  "queueing time at dequeue, vector"
attr unit  s
vector 24  Multitask.queue6  queueingTime:vector  ETV
attr interpolationmode  none
attr title  "queueing time at dequeue, vector"
attr unit  s
vector 9  Multitask.allocateQ2  queueingTime:vector  ETV
attr interpolationmode  none
attr title  "queueing time at dequeue, vector"
attr unit  s
vector 20  Multitask.queue5  queueingTime:vector  ETV
attr interpolationmode  none
attr title  "queueing time at dequeue, vector"
attr unit  s
vector 0  Multitask.sink  lifeTime:vector  ETV
attr interpolationmode  none
attr title  "lifetime of arrived jobs, vector"
attr unit  s
vector 1  Multitask.sink  totalQueueingTime:vector  ETV
attr interpolationmode  none
attr title  "the total time spent in queues by arrived jobs, vector"
attr unit  s
vector 4  Multitask.sink  queuesVisited:vector  ETV
attr interpolationmode  none
attr title  "the total number of queues visited by arrived jobs, vector"
vector 3  Multitask.sink  totalServiceTime:vector  ETV
attr interpolationmode  none
attr title  "the total time spent  by arrived jobs, vector"
attr unit  s
vector 2  Multitask.sink  totalDelayTime:vector  ETV
attr interpolationmode  none
attr title  "the total time spent in delay nodes by arrived jobs, vector"
attr unit  s
vector 5  Multitask.sink  delaysVisited:vector  ETV
attr interpolationmode  none
attr title  "the total number of delays visited by arrived jobs, vector"
vector 6  Multitask.sink  generation:vector  ETV
attr interpolationmode  none
attr title  "the generation of the arrived jobs, vector"
0	12614	1326.114417933367	1326.1144179334
0	12637	1326.495718661628	1326.4957186616
0	12662	1328.600587511264	1328.6005875113
0	12712	1332.60916899157	1332.6091689916
0	12782	1337.791773735431	1337.7917737354
0	12825	1339.541094812578	1339.5410948126
0	12869	1342.371785777856	1342.3717857779
0	13111	1368.434089058959	1368.434089059
0	13172	1378.322187754432	1378.3221877544
0	13238	1392.648657674992	1392.648657675
0	13244	1392.712350742314	1392.7123507423
0	13260	1393.470589890565	1393.4705898906
0	13281	1395.077352815716	1395.0773528157
0	13317	1396.2391175179	1396.2391175179
0	13333	1399.745356263197	1399.7453562632
0	13384	1411.07636840884	1411.0763684088
0	13455	1426.351577362843	1426.3515773628
0	13491	1427.37048178288	1427.3704817829
0	13512	1428.716939754888	1428.7169397549
0	13523	1428.912367983455	1428.9123679835
0	13538	1430.919863075066	1430.9198630751
0	13562	1431.93699998681	1431.9369999868
0	13637	1450.58886028456	1450.5888602846
0	13674	1461.535923174992	1461.535923175
0	13701	1464.492191650377	1464.4921916504
1	12614	1326.114417933367	1009.2352487398
1	12637	1326.495718661628	1029.2631990759
1	12662	1328.600587511264	977.70663868665
1	12712	1332.60916899157	1096.7919584074
1	12782	1337.791773735431	1021.3373705894
1	12825	1339.541094812578	957.82274024492
1	12869	1342.371785777856	1070.5030094787
1	13111	1368.434089058959	1116.6462218113
1	13172	1378.322187754432	1061.26941523
1	13238	1392.648657674992	1137.0145370802
1	13244	1392.712350742314	1066.8107879635
1	13260	1393.470589890565	1124.8804163111
1	13281	1395.077352815716	1032.8243145187
1	13317	1396.2391175179	1161.7254668113
1	13333	1399.745356263197	1051.8606387653
1	13384	1411.07636840884	1003.5693055642
1	13455	1426.351577362843	1126.6965816032
1	13491	1427.37048178288	1149.2010584268
1	13512	1428.716939754888	1090.9408942959
1	13523	1428.912367983455	1121.6543359524
1	13538	1430.919863075066	1089.8422113174
1	13562	1431.93699998681	1077.550155953
1	13637	1450.58886028456	1122.6138688566
1	13674	1461.535923174992	1137.7340261117
1	13701	1464.492191650377	1170.796281827
2	12614	1326.114417933367	0
2	12637	1326.495718661628	0
2	12662	1328.600587511264	0
2	12712	1332.60916899157	0
2	12782	1337.791773735431	0
2	12825	1339.541094812578	0
2	12869	1342.371785777856	0
2	13111	1368.434089058959	0
2	13172	1378.322187754432	0
2	13238	1392.648657674992	0
2	13244	1392.712350742314	0
2	13260	1393.470589890565	0
2	13281	1395.077352815716	0
2	13317	1396.2391175179	0
2	13333	1399.745356263197	0
2	13384	1411.07636840884	0
2	13455	1426.351577362843	0
2	13491	1427.37048178288	0
2	13512	1428.716939754888	0
2	13523	1428.912367983455	0
2	13538	1430.919863075066	0
2	13562	1431.93699998681	0
2	13637	1450.58886028456	0
2	13674	1461.535923174992	0
2	13701	1464.492191650377	0
3	12614	1326.114417933367	111.04778679815
3	12637	1326.495718661628	115.41354659704
3	12662	1328.600587511264	139.53206111633
3	12712	1332.60916899157	35.896711980893
3	12782	1337.791773735431	102.34466713471
3	12825	1339.541094812578	148.3626752405
3	12869	1342.371785777856	110.35121950512
3	13111	1368.434089058959	74.198436627587
3	13172	1378.322187754432	100.43653879521
3	13238	1392.648657674992	90.15472462077
3	13244	1392.712350742314	133.29106558137
3	13260	1393.470589890565	105.62014500273
3	13281	1395.077352815716	112.3078820285
3	13317	1396.2391175179	115.53263750982
3	13333	1399.745356263197	153.82293230758
3	13384	1411.07636840884	163.8411314316
3	13455	1426.351577362843	137.1676986952
3	13491	1427.37048178288	105.21675716858
3	13512	1428.716939754888	121.15102149829
3	13523	1428.912367983455	119.28447042491
3	13538	1430.919863075066	136.57252589222
3	13562	1431.93699998681	133.92788371669
3	13637	1450.58886028456	96.841185922526
3	13674	1461.535923174992	112.5029169671
3	13701	1464.492191650377	109.7218634513
4	12614	1326.114417933367	42
4	12637	1326.495718661628	27
4	12662	1328.600587511264	58
4	12712	1332.60916899157	22
4	12782	1337.791773735431	36
4	12825	1339.541094812578	58
4	12869	1342.371785777856	52
4	13111	1368.434089058959	35
4	13172	1378.322187754432	49
4	13238	1392.648657674992	51
4	13244	1392.712350742314	55
4	13260	1393.470589890565	43
4	13281	1395.077352815716	57
4	13317	1396.2391175179	55
4	13333	1399.745356263197	91
4	13384	1411.07636840884	45
4	13455	1426.351577362843	57
4	13491	1427.37048178288	47
4	13512	1428.716939754888	48
4	13523	1428.912367983455	51
4	13538	1430.919863075066	59
4	13562	1431.93699998681	72
4	13637	1450.58886028456	49
4	13674	1461.535923174992	49
4	13701	1464.492191650377	57
5	12614	1326.114417933367	0
5	12637	1326.495718661628	0
5	12662	1328.600587511264	0
5	12712	1332.60916899157	0
5	12782	1337.791773735431	0
5	12825	1339.541094812578	0
5	12869	1342.371785777856	0
5	13111	1368.434089058959	0
5	13172	1378.322187754432	0
5	13238	1392.648657674992	0
5	13244	1392.712350742314	0
5	13260	1393.470589890565	0
5	13281	1395.077352815716	0
5	13317	1396.2391175179	0
5	13333	1399.745356263197	0
5	13384	1411.07636840884	0
5	13455	1426.351577362843	0
5	13491	1427.37048178288	0
5	13512	1428.716939754888	0
5	13523	1428.912367983455	0
5	13538	1430.919863075066	0
5	13562	1431.93699998681	0
5	13637	1450.58886028456	0
5	13674	1461.535923174992	0
5	13701	1464.492191650377	0
6	12614	1326.114417933367	0
6	12637	1326.495718661628	0
6	12662	1328.600587511264	0
6	12712	1332.60916899157	0
6	12782	1337.791773735431	0
6	12825	1339.541094812578	0
6	12869	1342.371785777856	0
6	13111	1368.434089058959	0
6	13172	1378.322187754432	0
6	13238	1392.648657674992	0
6	13244	1392.712350742314	0
6	13260	1393.470589890565	0
6	13281	1395.077352815716	0
6	13317	1396.2391175179	0
6	13333	1399.745356263197	0
6	13384	1411.07636840884	0
6	13455	1426.351577362843	0
6	13491	1427.37048178288	0
6	13512	1428.716939754888	0
6	13523	1428.912367983455	0
6	13538	1430.919863075066	0
6	13562	1431.93699998681	0
6	13637	1450.58886028456	0
6	13674	1461.535923174992	0
6	13701	1464.492191650377	0
8	0	0	0
8	100	2.49802466852	1
8	102	3.318371807806	2
8	109	4.18083232302	1
8	124	4.9830840245	2
8	131	5.30909453179	3
8	133	5.564601658972	4
8	135	5.832416431306	5
8	142	6.56535138581	6
8	144	7.283555511693	7
8	146	8.531008952501	8
8	148	9.624717061277	9
8	153	10.142671513762	8
8	158	10.233400690458	7
8	165	10.616449913981	8
8	167	11.040449234759	9
8	169	11.05930358975	10
8	174	11.190660190237	9
8	183	11.590698219644	10
8	188	14.047551510912	11
8	190	14.501281011069	12
8	197	15.217911374798	13
8	207	17.554514441986	12
8	224	17.917940572839	13
8	231	20.354461539975	12
8	239	20.546942367734	11
8	244	20.573317225107	10
8	251	21.420301616718	11
8	253	21.54442506603	12
8	255	21.623670908892	13
8	257	22.651461724141	14
8	262	25.82061976769	13
8	269	26.842472953399	14
8	271	28.450531338498	15
8	273	29.367580349734	16
8	275	29.478837677314	17
8	280	30.809282967954	16
8	295	33.498451328033	15
8	310	37.070863673164	14
8	317	37.541493075316	15
8	437	45.924962663677	14
8	454	48.410821490176	15
8	456	48.716665877921	16
8	466	51.221745776846	15
8	470	51.506050035219	16
8	488	52.309404107948	15
8	498	52.569526458856	14
8	505	52.771722568126	15
8	510	53.719134607429	14
8	522	55.627324763042	15
8	532	56.618190086744	14
8	537	56.62838062075	13
8	551	56.974247637077	12
8	564	57.289660135323	11
8	568	57.359401840904	12
8	573	57.653033595326	13
8	575	57.681708010484	14
8	585	57.906679798836	15
8	592	58.279290099858	16
8	594	58.736068172688	17
8	619	62.075066761124	16
8	636	65.470898752342	17
8	640	65.608821512491	18
8	645	65.689869178713	17
8	668	66.61656495976	16
8	675	67.285822091951	17
8	680	67.459017065414	16
8	707	70.055335251568	17
8	709	71.498347692399	18
8	716	71.922551549608	19
8	726	73.084370920593	18
8	738	74.353348789133	19
8	740	78.112424192921	20
8	750	78.983746827614	19
8	760	79.93975315342	18
8	777	85.861461726106	19
8	794	86.174830705315	20
8	804	90.414835388407	19
8	821	91.323496873815	18
8	836	92.886290928152	19
8	838	92.991498363815	20
8	848	94.029206623986	19
8	868	94.831747726876	18
8	883	95.226089726154	17
8	915	99.628716227581	18
8	917	100.685314542164	19
8	932	103.023694401351	18
8	942	103.315388321223	17
8	946	103.376055277811	18
8	969	107.725394186179	17
8	974	107.807794293816	16
8	981	107.897028278127	15
8	994	108.376979835935	14
8	1006	109.420100891301	15
8	1048	111.050124913034	16
8	1060	115.288120773557	17
8	1075	116.391885019743	16
8	1097	119.20518888102	17
8	1104	122.557221320645	18
8	1109	123.354939354391	17
8	1149	127.786272944668	16
8	1154	127.800307195945	15
8	1164	128.168344079483	14
8	1169	128.17105946859	13
8	1183	129.571644973377	14
8	1188	130.110039994648	13
8	1198	131.34104624655	14
8	1205	132.945335724647	15
8	1244	135.222217667528	16
8	1249	136.181811793142	17
8	1256	136.490810969858	16
8	1279	137.553648434961	15
8	1286	139.936557868193	16
8	1288	139.997887003821	17
8	1290	141.123508162129	18
8	1300	142.17806354461	17
8	1312	143.453438294316	18
8	1317	143.682988498253	17
8	1332	148.615561348035	16
8	1352	149.805107264745	15
8	1357	149.869927895448	14
8	1384	153.09470344737	15
8	1386	154.555527540449	16
8	1388	154.63356796553	17
8	1390	155.428857589649	18
8	1395	158.475159835277	17
8	1425	161.229038818791	16
8	1430	161.231383056907	15
8	1435	161.233591762803	14
8	1452	161.885355467205	15
8	1464	162.226943350142	14
8	1487	162.98693106428	13
8	1512	164.206637274274	12
8	1529	165.236040331652	13
8	1531	165.984625582407	14
8	1533	166.372323353618	15
8	1535	167.203330165718	16
8	1537	167.357549191303	17
8	1539	167.953612356956	18
8	1551	171.205783643999	19
8	1556	175.211224287852	18
8	1566	175.862890941965	17
8	1576	176.678326677012	16
8	1583	176.79309845182	17
8	1588	177.38061607086	16
8	1598	177.735884340124	15
8	1605	178.730035593113	16
8	1609	180.382626612861	17
8	1624	183.091935448144	18
8	1646	187.538294919835	19
8	1665	188.08441777434	20
8	1668	188.10153579808	19
8	1703	190.861499645457	18
8	1710	193.353240819167	19
8	1760	195.878431600292	18
8	1775	197.170905785233	17
8	1782	197.999382130025	18
8	1812	212.763039721246	17
8	1817	212.804503913516	16
8	1822	212.824453497768	15
8	1826	212.901399615798	16
8	1846	215.150182017387	17
8	1848	220.253941919437	18
8	1865	231.459417533156	19
8	1870	237.789185812122	18
8	1910	239.552646945621	17
8	1929	239.818571909886	16
8	1937	239.920414133315	15
8	1947	240.097846029153	14
8	1955	240.103549377198	13
8	1972	241.146299232097	14
8	1974	241.306795538949	15
8	1983	242.954782598363	16
8	1986	243.092994899977	15
8	1993	243.187395187203	14
8	2001	243.313871893414	13
8	2006	243.390450898545	12
8	2017	244.110078416489	13
8	2022	244.299521748346	12
8	2030	244.672407789774	11
8	2037	244.757982427754	12
8	2042	244.846791863285	11
8	2049	244.890395186645	10
8	2107	248.497703021577	11
8	2114	249.086217765595	12
8	2134	249.636270042197	11
8	2141	249.841919492064	12
8	2143	250.513132039859	13
8	2148	251.573828652379	12
8	2155	251.748417251258	11
8	2165	253.137474704876	12
8	2167	253.476563819102	13
8	2169	254.060204144819	14
8	2171	254.778319436587	15
8	2173	254.903170186152	16
8	2210	258.931658005692	17
8	2225	262.676760346755	16
8	2232	263.099773639052	17
8	2234	263.213334955775	18
8	2249	265.955704595692	17
8	2299	270.467420576495	16
8	2326	271.301943070539	15
8	2338	271.522320707372	14
8	2354	271.999033273542	13
8	2361	272.108371100866	12
8	2366	272.396966182159	11
8	2370	272.398901803512	12
8	2376	272.453414611207	11
8	2383	272.558400760691	12
8	2388	272.775882138761	11
8	2394	272.93698674414	12
8	2399	273.478873429638	13
8	2404	274.185198602502	14
8	2409	275.067589745476	13
8	2416	275.20923587015	14
8	2420	275.430640284037	15
8	2454	276.554698046451	16
8	2460	276.584039732473	15
8	2475	277.286858893757	14
8	2480	277.325407841254	13
8	2487	277.482541078355	14
8	2502	279.081175023374	13
8	2507	279.188386389731	12
8	2512	279.231735226039	11
8	2524	280.293291126798	12
8	2526	280.591255661052	13
8	2528	282.03677575445	14
8	2530	282.317143449196	15
8	2542	284.21833053075	16
8	2552	285.303634797257	15
8	2577	287.814490970626	14
8	2582	287.846459567322	13
8	2617	289.922039398535	12
8	2629	290.441396431784	13
8	2631	290.945721887811	14
8	2646	291.872265787174	13
8	2660	294.704540706329	14
8	2663	294.953579026135	13
8	2670	295.288221090722	12
8	2680	295.544380492164	13
8	2682	295.652525218703	14
8	2686	295.689671085681	15
8	2691	296.125990782	16
8	2698	298.211499293715	17
8	2708	303.399016529078	16
8	2713	303.583006869916	15
8	2735	304.599163691973	16
8	2737	304.690146898836	17
8	2754	309.695648599609	18
8	2779	314.127105299402	17
8	2784	314.152831297608	16
8	2799	314.464549582547	15
8	2839	316.695029449249	14
8	2864	317.410214033382	13
8	2876	317.941908831112	14
8	2878	321.69834045699	15
8	2880	322.08695890294	16
8	2887	323.753960393119	17
8	2894	324.640616852316	18
8	2914	329.868909125	17
8	2934	330.223056728777	16
8	2941	330.554861492158	17
8	2968	338.244043364243	18
8	3040	342.649882132194	19
8	3065	343.819978230053	18
8	3077	344.755249682447	19
8	3094	346.986666150311	20
8	3139	365.834653000539	19
8	3194	371.105466079489	18
8	3201	371.32197453536	19
8	3213	373.470367731703	18
8	3218	373.568454009945	17
8	3226	373.602839421252	16
8	3241	373.955196467242	15
8	3246	373.965469823305	14
8	3256	374.461406404452	13
8	3268	375.022671562014	14
8	3273	375.177273403157	13
8	3280	375.229959623632	14
8	3282	375.28193132354	15
8	3291	376.047758804693	16
8	3299	376.300522312207	15
8	3316	376.799633560958	16
8	3338	379.077675603822	17
8	3365	381.209628315506	18
8	3379	381.66315888923	17
8	3384	381.669472517157	16
8	3392	381.904986470958	15
8	3399	382.085049352662	16
8	3402	382.34773223724	15
8	3412	382.531956007172	14
8	3427	382.948599866609	13
8	3432	383.062169986376	12
8	3449	383.595559946445	13
8	3453	384.666441267612	14
8	3456	384.685574808426	13
8	3471	385.324212689881	12
8	3486	387.449230977144	11
8	3501	388.211039640536	10
8	3511	388.581300949137	9
8	3516	388.647856546189	8
8	3523	389.202732225743	9
8	3530	389.710416512706	10
8	3539	390.655425777348	11
8	3542	390.7997897019	10
8	3551	391.591659642804	11
8	3564	392.746269322846	10
8	3568	392.857486734036	11
8	3588	394.633193993399	10
8	3593	394.790073581898	9
8	3597	394.870817357049	10
8	3600	394.880468957354	9
8	3605	394.92149981448	8
8	3628	395.559897116587	7
8	3638	395.826238620949	6
8	3643	395.891807926591	5
8	3653	396.039313525616	4
8	3663	396.228740326406	3
8	3667	396.397485354126	4
8	3677	397.491375583879	5
8	3679	397.786200506301	6
8	3686	398.786306833907	7
8	3691	399.162143666248	6
8	3700	400.066882409744	7
8	3702	400.237678605219	8
8	3707	401.776344179208	9
8	3709	402.267143687037	10
8	3711	403.046118506781	11
8	3713	403.352588351047	12
8	3715	403.361350243832	13
8	3722	404.558951327518	14
8	3734	407.334711227947	15
8	3741	410.524276393265	16
8	3758	412.217309786411	17
8	3773	412.580183996766	16
8	3803	413.501927867889	15
8	3809	413.695709273203	16
8	3820	413.988181132888	15
8	3827	414.256259004821	16
8	3837	415.033250354989	15
8	3907	417.823191786714	14
8	3912	417.872085723933	13
8	3986	423.111526494808	12
8	3991	423.167474719275	11
8	4009	425.00509398549	12
8	4019	425.908936510639	11
8	4029	426.069183514538	10
8	4036	426.438345776534	11
8	4043	426.59247534279	12
8	4045	427.375655507787	13
8	4075	431.731604691552	12
8	4097	433.411978392224	13
8	4099	434.687996995419	14
8	4101	435.688927723227	15
8	4103	435.753492541587	16
8	4132	439.407744706165	15
8	4153	440.566490006331	14
8	4170	444.145592624484	15
8	4197	446.59738446443	16
8	4204	448.979173499767	17
8	4219	451.68524192285	16
8	4224	451.708282876143	15
8	4246	453.848071910487	16
8	4248	454.04242506978	17
8	4282	456.197543958337	18
8	4305	457.629518308518	17
8	4322	459.374441318122	18
8	4337	463.216568985722	17
8	4352	464.068620447987	16
8	4359	464.21845373448	17
8	4366	464.886048020762	18
8	4376	466.309285725753	17
8	4381	466.51804146483	16
8	4395	466.821208976257	17
8	4407	467.285483868992	18
8	4410	467.410835619396	17
8	4415	467.413299531142	16
8	4420	467.719779340735	15
8	4430	468.558509001912	14
8	4455	469.839472951592	13
8	4462	470.097576285634	14
8	4464	472.345409117053	15
8	4466	472.63281392752	16
8	4487	475.893743446568	17
8	4493	476.267594351496	16
8	4515	479.378090808277	17
8	4517	479.930123450415	18
8	4539	484.221659823456	19
8	4599	491.185570665357	18
8	4606	491.976249682363	19
8	4611	495.966788960887	18
8	4643	496.889056696192	17
8	4678	499.979235392899	18
8	4688	500.921340635709	17
8	4705	501.550221175043	18
8	4715	501.852891581113	17
8	4720	501.884907613738	16
8	4740	502.205739623842	15
8	4775	504.066556717602	14
8	4790	504.829432822681	13
8	4809	505.645220507142	14
8	4829	509.56648240351	15
8	4846	513.179635816296	14
8	4851	513.472413991904	13
8	4881	514.683477911563	14
8	4893	514.966015005075	13
8	4903	515.38140700667	14
8	4905	515.451710198327	15
8	4917	516.433383301985	16
8	4922	516.509826555599	15
8	4929	516.795480358038	16
8	4939	517.535438196501	15
8	4971	518.70155452655	16
8	4976	519.010704862966	15
8	4983	522.329778760448	16
8	4985	522.674040030186	17
8	4995	523.327224498247	16
8	5020	523.978817228314	15
8	5027	524.489919282408	16
8	5037	525.713009881325	15
8	5054	526.818678828625	16
8	5064	527.705686118832	15
8	5079	531.613705787702	14
8	5084	531.647806838281	13
8	5104	532.84383347404	12
8	5130	534.129058175404	13
8	5143	534.699371379693	12
8	5156	534.993607398811	11
8	5183	535.499946624707	10
8	5193	535.725612016098	9
8	5213	536.827966179794	10
8	5220	538.227210838212	11
8	5222	538.946435649711	12
8	5227	539.142656363997	11
8	5234	539.349561068958	12
8	5241	541.105424959987	13
8	5243	542.472225857811	14
8	5250	542.958381521272	15
8	5252	543.663038321269	16
8	5272	544.687251960761	15
8	5279	544.849816061641	16
8	5316	548.496899854655	17
8	5343	550.524215191364	18
8	5444	556.521149430675	19
8	5447	556.564789456005	18
8	5487	558.263284449884	19
8	5507	560.628527869508	18
8	5517	561.589916027065	17
8	5527	561.822043291457	16
8	5542	563.066960220236	15
8	5549	564.016767390924	16
8	5554	565.647783386441	15
8	5561	565.706005241415	16
8	5563	565.875534261034	17
8	5568	567.061099637465	16
8	5605	569.449971337859	17
8	5610	569.859322716893	16
8	5627	575.106457082204	17
8	5639	577.266204803854	18
8	5684	582.735142711815	17
8	5694	585.052114255656	16
8	5701	587.640052419898	17
8	5731	589.989988288273	16
8	5753	590.703376639858	17
8	5807	595.729997091278	18
8	5820	596.180367173152	17
8	5827	597.301708048919	18
8	5832	603.306256029169	17
8	5839	604.278756853424	18
8	5841	604.645320195936	19
8	5846	604.912195313712	18
8	5855	604.99120726485	19
8	5885	608.960673004941	20
8	5895	610.171768719855	19
8	5910	612.385478542182	18
8	5925	614.546447509158	17
8	5937	615.509684616182	18
8	5939	615.692294542458	19
8	5941	616.261509613994	20
8	5981	619.547474286251	19
8	5986	619.590411397701	18
8	6008	622.213564224304	17
8	6018	622.675608745991	16
8	6073	631.130323485027	17
8	6083	633.442762098152	16
8	6088	633.591129570916	15
8	6103	634.691598406544	14
8	6115	637.429960601108	15
8	6117	637.710989173652	16
8	6119	638.328547688402	17
8	6144	643.347027924749	16
8	6149	643.611081048143	15
8	6164	644.741716781183	14
8	6171	645.25257420503	15
8	6181	647.150416249365	14
8	6193	647.837934709555	15
8	6195	648.605757506209	16
8	6197	649.413691917497	17
8	6207	651.464425128186	16
8	6214	651.67320492685	17
8	6216	654.709451909556	18
8	6230	660.226600372973	19
8	6233	660.254896983168	18
8	6255	660.581588911798	17
8	6260	660.599052357055	16
8	6275	662.95849907077	17
8	6277	663.385754460079	18
8	6292	668.124462370782	17
8	6304	668.460271095796	16
8	6329	668.847057705981	17
8	6331	671.23478666663	18
8	6336	673.184569038136	17
8	6355	675.600582932086	18
8	6368	676.034124847224	17
8	6380	676.539528002261	18
8	6382	677.296821919557	19
8	6407	679.473979831365	18
8	6422	680.931284351054	17
8	6427	680.975266708515	16
8	6439	681.287947191271	17
8	6444	681.633042555463	16
8	6451	682.389976200566	17
8	6458	683.596818934591	18
8	6460	683.970533446519	19
8	6485	689.380149607298	18
8	6490	689.491652475995	17
8	6500	690.155675886405	16
8	6517	690.661213010636	15
8	6550	691.942682296681	14
8	6560	692.636121572096	13
8	6575	693.10840611127	12
8	6582	694.934708401171	13
8	6584	695.333541857079	14
8	6591	697.779731370217	15
8	6593	698.398149715029	16
8	6600	698.669189979604	17
8	6612	700.574539833315	18
8	6627	701.43369072093	17
8	6663	706.965104858228	18
8	6668	707.11081207497	17
8	6679	707.213081523421	16
8	6693	708.064186782633	17
8	6698	708.169103318512	18
8	6708	709.422729168322	17
8	6738	711.7632621919	16
8	6758	714.646310295698	15
8	6765	714.729325883533	16
8	6772	715.480051832285	17
8	6779	715.765149984649	16
8	6796	716.183862430723	17
8	6824	718.744232628103	16
8	6838	720.552192325734	17
8	6841	720.670359843921	16
8	6858	722.091325255577	17
8	6865	723.4650484442	18
8	6867	724.202371032865	19
8	6872	729.80750057463	18
8	6877	729.860074599015	17
8	6892	734.102456043955	16
8	6896	734.162850488708	17
8	6901	734.568597241866	18
8	6973	749.92036123268	19
8	6987	758.801960046198	20
8	7010	762.451817015201	19
8	7047	766.180614688112	20
8	7062	768.608795969692	19
8	7087	771.892487690485	18
8	7092	772.173165903284	17
8	7102	772.279729232512	16
8	7114	773.749076647656	17
8	7116	780.214255825023	18
8	7118	780.482013412762	19
8	7130	789.073590367116	20
8	7200	801.02026820539	19
8	7205	801.085135027302	18
8	7222	802.04430932598	17
8	7237	802.678419331675	18
8	7262	808.025198812375	17
8	7294	817.288743050649	18
8	7301	818.272941561562	17
8	7319	819.310345701604	16
8	7324	819.319328456519	15
8	7339	820.251290635325	14
8	7354	820.642153054797	13
8	7366	825.021735381749	14
8	7388	828.565308329534	15
8	7395	828.701510031969	16
8	7410	829.684811214076	15
8	7437	831.87442127905	16
8	7454	833.649428281295	17
8	7471	836.974596001858	18
8	7486	842.661882061544	17
8	7503	845.447765736526	18
8	7507	845.75917714388	19
8	7515	846.064660882862	18
8	7520	846.345390068536	17
8	7527	846.649803012099	18
8	7532	846.708708449448	17
8	7542	846.842583544097	16
8	7547	846.975178563227	15
8	7554	847.272500243249	16
8	7556	848.103335983625	17
8	7563	851.691976976124	18
8	7568	854.75321484206	17
8	7575	855.547977634992	18
8	7602	861.580480270817	19
8	7612	864.805033849393	18
8	7619	865.281029196925	19
8	7634	868.180364494847	18
8	7664	870.669943230338	17
8	7669	870.699277355023	16
8	7694	872.292729842338	15
8	7701	872.425591057795	16
8	7703	873.093763343981	17
8	7708	875.890057433632	16
8	7733	876.442516311932	15
8	7748	877.404131977881	14
8	7753	877.40814096416	13
8	7760	877.992630724718	14
8	7767	879.806137205659	15
8	7769	880.303161852998	16
8	7771	881.540678853336	17
8	7776	882.453737838155	16
8	7781	882.53837104733	15
8	7786	882.547814838499	14
8	7798	883.955247012134	15
8	7825	886.962141322512	14
8	7832	887.371763215672	15
8	7847	887.807545760881	16
8	7854	888.010984504515	17
8	7861	888.862835207215	18
8	7868	889.696101047315	19
8	7878	891.562009176651	18
8	7885	891.746244467403	19
8	7905	894.088876196399	18
8	7910	894.27495147355	17
8	7925	895.097549727477	16
8	7932	895.25101221889	17
8	7937	895.30140961641	16
8	7959	896.247444630227	17
8	7966	899.267754197097	18
8	7976	899.973202389228	17
8	7988	900.33473989796	18
8	7990	902.798898640968	19
8	8080	915.485247909422	18
8	8120	920.024352345663	17
8	8130	920.501610324439	16
8	8144	921.834466165157	17
8	8162	922.656794501157	16
8	8166	922.662759809681	17
8	8176	923.069549569769	16
8	8189	923.291397698166	15
8	8194	923.313405464752	14
8	8229	924.363418927313	13
8	8234	924.457345113095	12
8	8241	925.219327846143	13
8	8253	926.563261505404	14
8	8265	927.860908422731	15
8	8267	928.272875862942	16
8	8274	930.902998298108	17
8	8288	933.199070762873	18
8	8291	933.264128647175	17
8	8316	937.253378666862	16
8	8333	938.900935466132	17
8	8338	938.995503602986	16
8	8345	941.087518658629	17
8	8350	942.305003523072	16
8	8355	942.366916849389	15
8	8400	944.446693905383	14
8	8415	945.702175996173	13
8	8424	946.059711915613	14
8	8429	946.103052418239	15
8	8438	948.192906484712	16
8	8458	949.486588345923	17
8	8488	957.182748113944	16
8	8498	957.357428651222	15
8	8522	958.002947889506	16
8	8542	960.010251812259	17
8	8552	962.391917989554	16
8	8582	965.585811086717	15
8	8608	967.497531503584	16
8	8615	967.587396791492	17
8	8643	968.5857885413	18
8	8649	971.08623967206	19
8	8655	971.159323985787	18
8	8725	977.696902068403	17
8	8737	978.322572491643	18
8	8742	983.256160911977	17
8	8752	983.616702110373	16
8	8764	984.440828786067	17
8	8769	984.659477717332	16
8	8781	985.355958755583	17
8	8783	985.918701699276	18
8	8785	986.946469153296	19
8	8787	988.785649852983	20
8	8794	989.148280395883	19
8	8801	989.466509605207	18
8	8809	989.750782355717	17
8	8832	990.560632043678	16
8	8841	991.704133667973	17
8	8858	992.318359259988	18
8	8868	992.804479694128	17
8	8891	993.905027646352	16
8	8901	994.481780338954	15
8	8911	995.439651647289	14
8	8926	996.30633285752	13
8	8931	996.328559298158	12
8	8940	997.045509151242	13
8	8950	998.458367854138	14
8	8952	998.537939382437	15
8	8954	999.140542719386	16
8	8956	1001.877014504369	17
8	8958	1001.967509371314	18
8	8970	1004.269415480405	19
8	8972	1004.338006852634	20
8	8982	1007.801057925814	19
8	9012	1010.74456734416	18
8	9027	1011.489637756443	17
8	9032	1011.498835072746	16
8	9059	1014.086615432506	15
8	9091	1015.297214889136	16
8	9106	1015.751944766466	17
8	9138	1017.182255755914	18
8	9158	1018.242492643336	17
8	9165	1018.450594007692	18
8	9170	1020.289642604185	17
8	9185	1020.945590004529	16
8	9202	1021.462148176756	17
8	9207	1021.690006795492	16
8	9212	1022.028331262256	15
8	9232	1022.914212553993	14
8	9239	1023.275264954892	15
8	9243	1026.104312877632	16
8	9270	1029.787381981312	17
8	9275	1031.295426905346	18
8	9290	1032.445923836275	17
8	9317	1037.706861498741	18
8	9322	1038.043608405997	17
8	9327	1038.117232466548	16
8	9332	1038.20864876658	15
8	9337	1038.326023788045	14
8	9344	1038.577547511872	15
8	9351	1039.267498318172	16
8	9361	1039.733425630419	15
8	9366	1039.767868804697	14
8	9371	1039.798200864619	13
8	9376	1039.969281109099	12
8	9381	1040.015740214923	11
8	9398	1043.945200013073	12
8	9410	1044.859591818279	13
8	9414	1045.016613618479	14
8	9424	1045.327683552188	15
8	9429	1045.360332251117	14
8	9436	1048.591318844738	15
8	9438	1049.100263034508	16
8	9450	1051.056692453183	17
8	9495	1053.357113787181	16
8	9512	1053.910376766119	17
8	9519	1054.176279007459	16
8	9526	1054.203627089246	17
8	9529	1054.260355267157	16