version 2
run Multitask30-10-20150106-11:37:58-3872
attr configname Multitask30
attr datetime 20150106-11:37:58
attr experiment Multitask30
attr inifile omnetpp.ini
attr iterationvars ""
attr iterationvars2 $repetition=10
attr measurement ""
attr network Multitask
attr processid 3872
attr repetition 10
attr replication #10
attr resultdir results
attr runnumber 10
attr seedset 10

vector 8  Multitask.allocateQ2  queueLength:vector  ETV
attr interpolationmode  sample-hold
attr title  "queue length, vector"
vector 11  Multitask.queue3  queueLength:vector  ETV
attr interpolationmode  sample-hold
attr title  "queue length, vector"
vector 13  Multitask.queue3  busy:vector  ETV
attr interpolationmode  sample-hold
attr title  "server busy state, vector"
vector 15  Multitask.queue4  queueLength:vector  ETV
attr interpolationmode  sample-hold
attr title  "queue length, vector"
vector 17  Multitask.queue4  busy:vector  ETV
attr interpolationmode  sample-hold
attr title  "server busy state, vector"
vector 19  Multitask.queue5  queueLength:vector  ETV
attr interpolationmode  sample-hold
attr title  "queue length, vector"
vector 21  Multitask.queue5  busy:vector  ETV
attr interpolationmode  sample-hold
attr title  "server busy state, vector"
vector 23  Multitask.queue6  queueLength:vector  ETV
attr interpolationmode  sample-hold
attr title  "queue length, vector"
vector 25  Multitask.queue6  busy:vector  ETV
attr interpolationmode  sample-hold
attr title  "server busy state, vector"
vector 27  Multitask.queue7  queueLength:vector  ETV
attr interpolationmode  sample-hold
attr title  "queue length, vector"
vector 29  Multitask.queue7  busy:vector  ETV
attr interpolationmode  sample-hold
attr title  "server busy state, vector"
vector 30  Multitask.resourceCPU  amount:vector  ETV
attr interpolationmode  sample-hold
attr title  "available resource, vector"
vector 12  Multitask.queue3  queueingTime:vector  ETV
attr interpolationmode  none
attr title  "queueing time at dequeue, vector"
attr unit  s
vector 20  Multitask.queue5  queueingTime:vector  ETV
attr interpolationmode  none
attr title  "queueing time at dequeue, vector"
attr unit  s
vector 24  Multitask.queue6  queueingTime:vector  ETV
attr interpolationmode  none
attr title  "queueing time at dequeue, vector"
attr unit  s
vector 28  Multitask.queue7  queueingTime:vector  ETV
attr interpolationmode  none
attr title  "queueing time at dequeue, vector"
attr unit  s
vector 16  Multitask.queue4  queueingTime:vector  ETV
attr interpolationmode  none
attr title  "queueing time at dequeue, vector"
attr unit  s
vector 9  Multitask.allocateQ2  queueingTime:vector  ETV
attr interpolationmode  none
attr title  "queueing time at dequeue, vector"
attr unit  s
vector 0  Multitask.sink  lifeTime:vector  ETV
attr interpolationmode  none
attr title  "lifetime of arrived jobs, vector"
attr unit  s
vector 1  Multitask.sink  totalQueueingTime:vector  ETV
attr interpolationmode  none
attr title  "the total time spent in queues by arrived jobs, vector"
attr unit  s
vector 4  Multitask.sink  queuesVisited:vector  ETV
attr interpolationmode  none
attr title  "the total number of queues visited by arrived jobs, vector"
vector 3  Multitask.sink  totalServiceTime:vector  ETV
attr interpolationmode  none
attr title  "the total time spent  by arrived jobs, vector"
attr unit  s
vector 2  Multitask.sink  totalDelayTime:vector  ETV
attr interpolationmode  none
attr title  "the total time spent in delay nodes by arrived jobs, vector"
attr unit  s
vector 5  Multitask.sink  delaysVisited:vector  ETV
attr interpolationmode  none
attr title  "the total number of delays visited by arrived jobs, vector"
vector 6  Multitask.sink  generation:vector  ETV
attr interpolationmode  none
attr title  "the generation of the arrived jobs, vector"
0	12499	1502.870478365913	1502.8704783659
0	12522	1504.598990988053	1504.5989909881
0	12550	1510.429414386771	1510.4294143868
0	12586	1517.07769151593	1517.0776915159
0	12627	1521.33704587143	1521.3370458714
0	12665	1522.702922734166	1522.7029227342
0	12674	1522.800609210509	1522.8006092105
0	12687	1523.235043900106	1523.2350439001
0	12715	1524.907133769115	1524.9071337691
0	12735	1525.5868471166	1525.5868471166
0	12757	1526.672547258629	1526.6725472586
0	12763	1526.765304781339	1526.7653047813
0	12784	1534.391174843027	1534.391174843
0	12827	1540.73158794704	1540.731587947
0	12833	1540.796116498393	1540.7961164984
0	12849	1542.623588270766	1542.6235882708
0	12935	1554.166820956161	1554.1668209562
0	12956	1555.54844494213	1555.5484449421
0	13042	1571.86250673374	1571.8625067337
0	13048	1571.894062435225	1571.8940624352
0	13070	1573.1835705306	1573.1835705306
0	13075	1573.273222482538	1573.2732224825
0	13097	1574.353106308581	1574.3531063086
0	13109	1575.942509889376	1575.9425098894
0	13116	1576.983758391911	1576.9837583919
1	12499	1502.870478365913	1181.9439606547
1	12522	1504.598990988053	1212.8587820364
1	12550	1510.429414386771	1162.2311999087
1	12586	1517.07769151593	1258.9858189693
1	12627	1521.33704587143	1251.0111547322
1	12665	1522.702922734166	1204.0649614031
1	12674	1522.800609210509	1213.1837141451
1	12687	1523.235043900106	1166.1141338072
1	12715	1524.907133769115	1218.8439453104
1	12735	1525.5868471166	1248.24884646
1	12757	1526.672547258629	1252.9705644976
1	12763	1526.765304781339	1221.7124917855
1	12784	1534.391174843027	1212.5442292415
1	12827	1540.73158794704	1270.6125071763
1	12833	1540.796116498393	1244.078157662
1	12849	1542.623588270766	1203.4462664248
1	12935	1554.166820956161	1208.1661771734
1	12956	1555.54844494213	1239.2500349186
1	13042	1571.86250673374	1325.3820986371
1	13048	1571.894062435225	1220.3836579515
1	13070	1573.1835705306	1245.5007202788
1	13075	1573.273222482538	1184.0743395681
1	13097	1574.353106308581	1257.9509529441
1	13109	1575.942509889376	1217.1313935527
1	13116	1576.983758391911	1221.7281418458
2	12499	1502.870478365913	0
2	12522	1504.598990988053	0
2	12550	1510.429414386771	0
2	12586	1517.07769151593	0
2	12627	1521.33704587143	0
2	12665	1522.702922734166	0
2	12674	1522.800609210509	0
2	12687	1523.235043900106	0
2	12715	1524.907133769115	0
2	12735	1525.5868471166	0
2	12757	1526.672547258629	0
2	12763	1526.765304781339	0
2	12784	1534.391174843027	0
2	12827	1540.73158794704	0
2	12833	1540.796116498393	0
2	12849	1542.623588270766	0
2	12935	1554.166820956161	0
2	12956	1555.54844494213	0
2	13042	1571.86250673374	0
2	13048	1571.894062435225	0
2	13070	1573.1835705306	0
2	13075	1573.273222482538	0
2	13097	1574.353106308581	0
2	13109	1575.942509889376	0
2	13116	1576.983758391911	0
3	12499	1502.870478365913	70.968309807047
3	12522	1504.598990988053	80.537069518968
3	12550	1510.429414386771	158.87878892009
3	12586	1517.07769151593	63.477003343516
3	12627	1521.33704587143	101.03202792111
3	12665	1522.702922734166	145.97476965761
3	12674	1522.800609210509	88.468441289978
3	12687	1523.235043900106	150.43973590366
3	12715	1524.907133769115	135.2609402495
3	12735	1525.5868471166	96.389922822646
3	12757	1526.672547258629	105.80950533858
3	12763	1526.765304781339	130.67214943886
3	12784	1534.391174843027	102.66630044365
3	12827	1540.73158794704	156.03112835524
3	12833	1540.796116498393	90.069137289404
3	12849	1542.623588270766	161.12665052715
3	12935	1554.166820956161	127.43517437086
3	12956	1555.54844494213	82.985300577423
3	13042	1571.86250673374	106.06150223028
3	13048	1571.894062435225	92.082304003091
3	13070	1573.1835705306	129.1375700789
3	13075	1573.273222482538	108.47724503373
3	13097	1574.353106308581	128.60296060471
3	13109	1575.942509889376	164.53371486976
3	13116	1576.983758391911	126.71082636382
4	12499	1502.870478365913	40
4	12522	1504.598990988053	37
4	12550	1510.429414386771	46
4	12586	1517.07769151593	20
4	12627	1521.33704587143	41
4	12665	1522.702922734166	50
4	12674	1522.800609210509	40
4	12687	1523.235043900106	45
4	12715	1524.907133769115	57
4	12735	1525.5868471166	41
4	12757	1526.672547258629	55
4	12763	1526.765304781339	65
4	12784	1534.391174843027	44
4	12827	1540.73158794704	57
4	12833	1540.796116498393	37
4	12849	1542.623588270766	48
4	12935	1554.166820956161	56
4	12956	1555.54844494213	45
4	13042	1571.86250673374	51
4	13048	1571.894062435225	49
4	13070	1573.1835705306	58
4	13075	1573.273222482538	54
4	13097	1574.353106308581	54
4	13109	1575.942509889376	51
4	13116	1576.983758391911	54
5	12499	1502.870478365913	0
5	12522	1504.598990988053	0
5	12550	1510.429414386771	0
5	12586	1517.07769151593	0
5	12627	1521.33704587143	0
5	12665	1522.702922734166	0
5	12674	1522.800609210509	0
5	12687	1523.235043900106	0
5	12715	1524.907133769115	0
5	12735	1525.5868471166	0
5	12757	1526.672547258629	0
5	12763	1526.765304781339	0
5	12784	1534.391174843027	0
5	12827	1540.73158794704	0
5	12833	1540.796116498393	0
5	12849	1542.623588270766	0
5	12935	1554.166820956161	0
5	12956	1555.54844494213	0
5	13042	1571.86250673374	0
5	13048	1571.894062435225	0
5	13070	1573.1835705306	0
5	13075	1573.273222482538	0
5	13097	1574.353106308581	0
5	13109	1575.942509889376	0
5	13116	1576.983758391911	0
6	12499	1502.870478365913	0
6	12522	1504.598990988053	0
6	12550	1510.429414386771	0
6	12586	1517.07769151593	0
6	12627	1521.33704587143	0
6	12665	1522.702922734166	0
6	12674	1522.800609210509	0
6	12687	1523.235043900106	0
6	12715	1524.907133769115	0
6	12735	1525.5868471166	0
6	12757	1526.672547258629	0
6	12763	1526.765304781339	0
6	12784	1534.391174843027	0
6	12827	1540.73158794704	0
6	12833	1540.796116498393	0
6	12849	1542.623588270766	0
6	12935	1554.166820956161	0
6	12956	1555.54844494213	0
6	13042	1571.86250673374	0
6	13048	1571.894062435225	0
6	13070	1573.1835705306	0
6	13075	1573.273222482538	0
6	13097	1574.353106308581	0
6	13109	1575.942509889376	0
6	13116	1576.983758391911	0
8	0	0	0
8	128	3.086553182007	1
8	133	3.549067345472	2
8	153	4.208437172892	1
8	173	5.402042136798	0
8	185	5.852168725705	1
8	189	6.823851560603	2
8	194	6.901656572756	3
8	196	8.754409185767	4
8	198	8.844196561968	5
8	213	9.918658435438	4
8	220	10.041612913796	5
8	229	11.514386313054	6
8	233	11.563255603562	7
8	238	11.892495994032	8
8	240	11.902975488644	9
8	248	12.305054353478	8
8	255	12.35147079198	9
8	275	13.160305743638	8
8	287	13.815213008244	9
8	289	14.183284133878	10
8	291	14.293301045208	11
8	305	14.754344449756	12
8	308	14.829600260688	11
8	313	14.872118148277	10
8	333	15.264848996464	9
8	345	15.484206536626	8
8	353	15.590917066121	7
8	367	15.876402171547	8
8	370	15.886182475546	7
8	377	16.766684952544	8
8	379	16.805359826898	9
8	386	16.960957307833	10
8	388	17.832638302408	11
8	402	19.964063460152	12
8	407	20.79722045667	13
8	409	21.85073563103	14
8	421	23.576699837961	15
8	438	24.546613861964	16
8	445	26.137041365345	15
8	473	26.508447265153	14
8	477	26.516885318892	15
8	482	27.128257361202	16
8	507	29.035031466966	15
8	517	29.307522930007	14
8	524	30.660119119147	15
8	526	31.068867442708	16
8	533	32.165860817599	17
8	545	33.424544585146	18
8	547	34.419626761648	19
8	549	36.067687046528	20
8	569	38.815764463533	19
8	583	39.20287857544	20
8	586	39.289934155297	19
8	596	39.677655346002	18
8	603	39.731064397039	17
8	631	43.669463637816	16
8	638	43.959016742841	17
8	645	45.468793425847	18
8	662	47.441233869195	17
8	672	47.67834373658	18
8	679	48.30414935824	19
8	696	50.333337351271	20
8	711	52.597661239693	19
8	723	54.814545283829	20
8	738	59.154043696332	19
8	753	59.958641966743	18
8	778	61.19316830414	17
8	785	62.264733705667	18
8	820	64.544540106252	17
8	835	65.46292080056	16
8	845	65.693153909774	15
8	852	65.96738531322	16
8	859	66.432871889594	15
8	871	66.629420241928	14
8	891	67.388023446787	15
8	899	67.540214840768	14
8	904	67.62210550093	13
8	911	67.668268430241	14
8	921	68.107795299665	13
8	931	68.387460237813	12
8	936	68.440610034149	11
8	943	68.670147050411	12
8	948	69.571390900274	11
8	955	70.460448800586	12
8	970	71.438399134818	11
8	992	72.364502132835	12
8	994	73.0110905708	13
8	996	73.682885453395	14
8	998	74.258461620954	15
8	1020	75.682432664392	16
8	1027	81.421452154031	17
8	1029	83.841556844072	18
8	1036	86.781893752441	19
8	1043	91.939926905206	18
8	1103	93.856075451275	17
8	1136	95.467863148879	16
8	1158	97.489514714447	17
8	1163	98.77317545943	16
8	1170	98.998735562912	17
8	1194	101.076280712285	18
8	1222	102.824761377142	17
8	1249	105.3523653213	18
8	1254	108.417201205915	17
8	1261	111.030063461498	18
8	1283	114.860956287024	19
8	1295	119.225769944605	20
8	1335	128.963823591761	19
8	1340	128.97793574227	18
8	1350	129.957954579279	17
8	1355	130.044956837668	16
8	1362	130.640806854628	17
8	1372	131.031819199925	16
8	1384	131.287892307609	17
8	1386	131.374534164428	18
8	1388	131.523238383069	19
8	1398	133.519455036083	18
8	1410	134.181567951521	19
8	1419	134.531150719806	20
8	1427	135.198328733661	19
8	1437	136.014479020448	18
8	1442	136.021071606325	17
8	1457	137.646452265307	16
8	1464	137.739204636827	15
8	1482	138.263698901861	14
8	1502	139.26218221769	13
8	1534	141.699203790544	14
8	1569	143.125055935689	13
8	1593	143.740374797213	12
8	1602	144.089606450709	13
8	1636	145.533106468605	12
8	1640	145.538743206638	13
8	1643	145.591657270396	12
8	1650	145.836397948519	13
8	1657	146.556343783649	14
8	1659	146.567364729155	15
8	1661	146.807991623842	16
8	1701	153.861105278433	15
8	1710	154.289765885481	16
8	1722	155.971196024589	17
8	1732	158.351327147161	18
8	1781	161.201594438068	17
8	1789	161.253736405026	16
8	1814	163.416386172302	17
8	1821	165.567817761418	18
8	1826	166.039123625013	17
8	1831	166.059376690277	16
8	1851	168.135305366361	15
8	1858	168.533303178249	16
8	1883	170.29313496963	15
8	1895	171.136111833346	16
8	1917	178.346204404202	17
8	1919	178.449273084218	18
8	1921	179.658675677577	19
8	1951	181.861865219456	18
8	1966	184.186196829007	17
8	1973	184.436696116744	18
8	1978	184.669275817995	17
8	1988	184.95531604014	16
8	1993	185.021998937313	15
8	2025	187.987456769659	16
8	2030	189.777281401261	15
8	2037	189.794093891793	16
8	2049	190.722159491348	17
8	2054	190.850166441495	16
8	2071	191.863157770093	17
8	2086	193.075434541299	16
8	2098	193.68338859954	17
8	2100	193.838888692357	18
8	2127	196.50871217887	19
8	2154	199.332117487334	18
8	2172	199.777239934656	17
8	2184	201.93647139602	18
8	2189	202.858387157014	17
8	2199	203.458006364518	16
8	2204	203.556899507619	15
8	2211	203.990139435744	16
8	2215	204.36406150717	17
8	2223	204.935033549665	16
8	2233	205.398051197451	15
8	2263	208.114099646478	14
8	2290	211.418270631013	15
8	2305	213.535115714315	14
8	2315	214.899431816488	13
8	2320	214.90404097979	12
8	2339	215.569917419752	13
8	2349	217.932915930549	14
8	2351	218.258329038928	15
8	2353	218.610389180027	16
8	2380	225.745533459382	17
8	2410	229.444588727595	16
8	2415	229.473249870737	15
8	2437	230.795475639613	16
8	2469	232.70366155946	17
8	2499	237.081930628688	16
8	2504	237.228153086892	15
8	2511	237.753219957472	16
8	2513	238.840353700099	17
8	2560	251.579063577164	18
8	2574	252.412183386806	17
8	2581	252.61668155857	16
8	2622	257.247998804342	17
8	2624	257.513972511227	18
8	2626	258.069480869711	19
8	2631	261.095115177247	18
8	2646	261.907475195263	17
8	2651	261.934823519924	16
8	2673	263.663423662262	17
8	2678	264.058052287692	16
8	2688	264.44082974181	15
8	2703	265.218712898083	14
8	2715	265.685769158046	15
8	2717	266.055729231104	16
8	2746	267.468516775151	17
8	2796	270.919227648845	18
8	2801	272.399040316235	17
8	2808	273.391957939966	18
8	2810	273.427794933051	19
8	2822	277.597045164638	20
8	2827	279.36151741454	19
8	2842	280.00332472123	18
8	2864	286.201198337073	19
8	2891	295.610793511652	20
8	2896	301.184850192343	19
8	2906	302.314530388032	18
8	2911	302.323391830711	17
8	2923	305.819253935931	18
8	2925	307.134043464716	19
8	2932	308.391283780205	20
8	2977	326.04637399606	19
8	2992	326.794307970417	18
8	3027	342.445516480521	17
8	3054	346.760961739071	18
8	3104	358.579619960422	17
8	3119	359.19694843753	16
8	3124	359.253107169481	15
8	3139	360.465465682844	14
8	3151	361.756533762274	15
8	3158	365.15304548256	16
8	3160	366.20804336404	17
8	3162	368.1051092045	18
8	3172	369.918948428699	17
8	3196	371.233976477759	18
8	3216	373.008739033579	19
8	3228	374.249090923091	20
8	3253	395.624580256235	19
8	3278	399.049788956094	18
8	3293	400.218331128846	17
8	3305	400.435456220153	18
8	3307	401.144013764341	19
8	3309	403.431278781697	20
8	3324	407.343791897653	19
8	3329	407.381665383712	18
8	3336	409.975952349729	19
8	3413	429.938777111413	20
8	3458	438.450134295331	19
8	3468	438.664012102813	18
8	3473	438.698685809008	17
8	3478	438.734910842509	16
8	3483	438.746920818787	15
8	3495	439.794159865429	16
8	3515	443.642149305981	15
8	3522	444.88866557132	16
8	3529	446.854555296826	15
8	3547	447.121975562632	14
8	3551	447.172231022829	15
8	3556	447.290215600088	14
8	3576	447.712251565709	15
8	3585	448.137893142706	14
8	3631	450.610191219578	13
8	3658	451.493522001007	14
8	3672	452.427794480523	13
8	3682	452.670299888021	12
8	3705	453.684993863866	13
8	3707	454.093227265273	14
8	3717	455.48659509961	13
8	3727	456.302816280163	12
8	3734	456.46154576315	13
8	3736	456.754869097037	14
8	3738	456.82317704924	15
8	3740	458.716637613111	16
8	3742	461.014712294041	17
8	3744	461.023656588387	18
8	3749	461.696634204726	17
8	3756	461.975217178009	18
8	3763	462.156633370606	19
8	3780	464.977451543054	20
8	3795	469.050781116556	19
8	3812	475.816046093128	20
8	3822	476.568090630508	19
8	3852	478.135564956411	18
8	3862	478.225794058537	17
8	3874	481.6900368806	18
8	3876	483.58642779767	19
8	3898	486.035240717084	18
8	3963	493.306875393831	19
8	3968	498.872740166863	18
8	3978	499.041986180921	17
8	3985	499.431220995885	18
8	4027	502.0219578183	17
8	4037	502.166747245196	16
8	4067	503.558184680258	17
8	4072	503.948697454922	16
8	4077	503.969072642001	15
8	4087	504.17060054234	14
8	4099	505.495360996676	15
8	4126	508.569985271331	14
8	4134	508.878072986766	13
8	4149	509.135533970649	12
8	4159	509.53656551029	11
8	4164	509.636216297409	10
8	4169	509.637584544972	9
8	4174	509.646445040558	8
8	4181	509.678954566836	9
8	4203	511.340831137837	10
8	4205	512.20676670056	11
8	4207	512.621581352851	12
8	4209	513.314248074308	13
8	4211	516.275484178	14
8	4228	521.44094125368	15
8	4233	522.518689571824	14
8	4258	524.47148495902	13
8	4263	524.680723280358	12
8	4267	524.89072288076	13
8	4272	525.586237117793	14
8	4277	526.839144175539	13
8	4284	527.332236347889	14
8	4289	527.5921891447	13
8	4296	529.107849414732	14
8	4311	530.302140524867	13
8	4328	531.895167747384	14
8	4340	532.221320332235	13
8	4355	534.146658108305	14
8	4362	537.070705433965	15
8	4366	537.23773263127	16
8	4376	538.117741067119	17
8	4386	539.517579261812	16
8	4403	541.056714470049	15
8	4408	541.151648222298	14
8	4421	541.556095716371	13
8	4433	543.197381922099	14
8	4440	543.381691508384	15
8	4442	543.622174025649	16
8	4449	548.392531652592	17
8	4459	552.321683566339	16
8	4469	552.398569085607	15
8	4474	552.442934532782	14
8	4481	553.524048594225	15
8	4486	553.974030216275	14
8	4496	554.68383800349	13
8	4500	554.937775305194	14
8	4523	555.764674235276	13
8	4540	559.130812304093	14
8	4555	563.092616303694	13
8	4570	564.639702570301	12
8	4582	567.1131856282	13
8	4587	567.402526559258	12
8	4599	568.814297890897	13
8	4606	568.982295248693	14
8	4608	569.424961671094	15
8	4610	569.425696282822	16
8	4620	570.440599713564	15
8	4627	573.89809046262	16
8	4634	575.05925532782	17
8	4636	578.628958762307	18
8	4653	581.14585276938	19
8	4665	585.379994315083	20
8	4690	593.024684225059	19
8	4725	596.122479727534	18
8	4747	601.605586095362	17
8	4760	601.890283109535	16
8	4767	602.122184413562	17
8	4769	602.151475481739	18
8	4781	609.651840079807	19
8	4796	612.272603323663	18
8	4803	612.964002484973	19
8	4838	615.258238476898	18
8	4843	615.258524858955	17
8	4850	618.242014088019	18
8	4855	618.507332088387	17
8	4877	621.562071939628	18
8	4879	622.174012325306	19
8	4903	625.150073984043	20
8	4911	626.340392455826	19
8	4928	627.046697753837	18
8	4986	630.075486558123	17
8	4993	630.139048660653	16
8	4998	630.178315849549	15
8	5016	630.577213246719	14
8	5021	630.668589955629	13
8	5031	631.228929366865	12
8	5038	631.927046081493	13
8	5040	632.128268545169	14
8	5055	633.671839186506	13
8	5065	634.136963454028	12
8	5070	634.257567775425	11
8	5080	634.60774825721	10
8	5087	634.701237527234	11
8	5089	634.919560071021	12
8	5091	635.111441688371	13
8	5093	635.742980782697	14
8	5095	636.200730465607	15
8	5097	636.269162648992	16
8	5099	639.029995866938	17
8	5106	640.234191456331	18
8	5112	640.516948124431	19
8	5118	640.690594481326	18
8	5138	641.621365201605	17
8	5155	642.36631902179	18
8	5165	643.980543356181	17
8	5187	645.07307735492	16
8	5220	646.068731547002	15
8	5227	646.283524682624	16
8	5229	647.525643421758	17
8	5246	647.825328570687	16
8	5266	649.548710011958	17
8	5268	652.040428493308	18
8	5300	657.530891820057	19
8	5307	657.900486334625	20
8	5357	672.387409207602	19
8	5392	682.190448781588	18
8	5399	683.146181596734	19
8	5401	683.357197499625	20
8	5408	683.647588928735	19
8	5413	683.68512659774	18
8	5473	686.959233762538	19
8	5483	687.979386697179	18
8	5500	688.681621953785	17
8	5505	688.693588185117	16
8	5563	695.913610530882	15
8	5588	697.639644948983	14
8	5600	698.040550040034	15
8	5605	698.229254941574	14
8	5610	698.295515896698	13
8	5624	698.516806413367	14
8	5636	699.69070135241	15
8	5649	699.975612574501	14
8	5684	700.816350297085	13
8	5689	700.918700973025	12
8	5704	701.304047189555	11
8	5716	701.74061613626	12
8	5731	702.92723929617	11
8	5743	703.167354732882	12
8	5748	703.830269167962	11
8	5770	704.684008155525	12
8	5777	705.381315138704	13
8	5779	705.722648101108	14
8	5781	706.021697011273	15
8	5793	710.493610774215	16
8	5815	711.987493522498	17
8	5817	712.455225019364	18
8	5829	716.745917697755	17
8	5849	720.433558219948	18
8	5861	722.901928260951	19
8	5871	726.515191867393	18
8	5883	727.687629210411	19
8	5892	729.176067716178	20
8	5930	736.615526683807	19
8	5940	737.7498134348	18
8	5945	737.756315190196	17
8	5962	739.176086823454	16
8	5992	742.482066374546	17
8	6007	744.830127648312	16
8	6027	745.895127239539	15
8	6044	746.199642948111	16
8	6046	748.869407296167	17
8	6048	749.821624624953	18
8	6058	755.458144936261	17
8	6073	755.953029496414	16
8	6083	756.358644675455	15
8	6095	757.294782922237	16
8	6112	765.433757977422	17
8	6129	768.869706190036	16
8	6141	769.545167427953	17
8	6174	774.440844359825	16
8	6179	774.510146569836	15
8	6189	774.74699824555	14
8	6196	774.890170924256	15
8	6206	775.583593305039	14
8	6221	777.359936998795	13
8	6228	777.424744029094	14
8	6230	777.715318274194	15
8	6240	779.443111256113	14
8	6260	780.570778805159	13
8	6270	780.67613725769	12
8	6274	780.892914129684	13
8	6321	785.493541426132	14
8	6324	785.56685108909	13
8	6331	786.347181704165	14
8	6333	787.406864054174	15
8	6335	789.953136341316	16
8	6337	791.090246208885	17
8	6339	791.186238159299	18
8	6359	793.450584963486	17
8	6371	794.127052371441	18
8	6393	795.755804418722	17
8	6397	795.889265516166	18
8	6403	796.073985895215	17
8	6408	796.200429028977	16
8	6435	799.419535111489	17
8	6442	801.98136629423	18
8	6449	803.282186877004	19
8	6459	805.754033680204	18
8	6466	807.480334081899	19
8	6481	808.189385462375	18
8	6493	816.221593320988	19
8	6495	817.081413171382	20
8	6505	822.135081688747	19
8	6560	824.678301987783	18
8	6575	825.905672770254	17
8	6587	826.444311020678	18
8	6599	827.361348896186	19
8	6601	827.495067394601	20
8	6606	832.825053596756	19
8	6691	852.689375784401	18
8	6696	853.109224449244	17
8	6708	854.090462761522	18
8	6713	855.927281157413	17
8	6723	856.93988966619	16
8	6728	856.944428803881	15
8	6732	857.136646227603	16
8	6750	859.421000684065	15
8	6757	859.658129511101	16
8	6764	860.261972791357	17
8	6769	860.911333304652	16
8	6796	864.572477800025	17
8	6808	865.360624484667	16
8	6816	865.498857210839	15
8	6843	866.733464553008	16
8	6870	869.243365897423	17
8	6885	871.412804117522	16
8	6897	872.318964912458	17
8	6902	873.525277209972	16
8	6917	874.3202392725	15
8	6924	874.557861900174	16
8	6931	875.110230183746	17
8	6941	875.661826709291	16
8	6950	875.888380856531	17
8	6958	876.694047386042	16
8	6968	876.854509853219	15
8	6980	878.018323672287	16
8	7000	878.744168712251	15
8	7005	878.771563003552	14
8	7017	879.930336779175	15
8	7021	880.048114468357	16
8	7061	882.176028971226	17
8	7068	883.029979278908	16
8	7098	884.366614039755	17
8	7123	885.512234613137	16
8	7133	886.101288253384	15
8	7140	886.283134385635	14
8	7158	886.724921292984	13
8	7165	886.896045362136	12
8	7183	888.658514269519	11
8	7200	889.843415394595	12
8	7210	890.480073328533	11
8	7220	890.838994698721	10
8	7239	891.691847670926	9
8	7252	892.297651062427	10
8	7264	892.743781083919	11
8	7266	894.503935395052	12
8	7281	896.64184794237	11
8	7293	899.23976385337	12
8	7295	899.964733874082	13
8	7300	900.049989055561	12
8	7307	900.440991177572	13
8	7314	901.528953602894	14
8	7316	902.393231096754	15
8	7320	903.850693702461	16
8	7330	904.851903829233	17
8	7359	909.961624063171	16
8	7367	910.083559842885	15
8	7377	910.448869887732	16
8	7388	911.312401559295	17
8	7390	911.316776953814	18
8	7393	911.362873803781	17
8	7420	913.021540388004	18
8	7438	913.804861978421	17
8	7473	917.244088142932	16
8	7482	917.582246517067	17
8	7492	919.932491014663	18
8	7512	923.046254610178	17
8	7577	933.054002688983	16
8	7587	934.529603418889	15
8	7597	934.69234757772	14
8	7617	935.478171057861	13
8	7627	935.836318385148	12
8	7632	935.917129706972	11
8	7649	937.588419457802	12
8	7661	940.258123012012	13
8	7668	940.471820741792	14
8	7673	940.63038219243	13
8	7693	941.363910911225	12
8	7720	942.630415151803	13
8	7725	942.913974083134	12
8	7739	944.284194954957	13
8	7742	944.469978654163	12
8	7752	944.79984286309	11
8	7767	944.909284265602	10
8	7787	945.152002541122	9
8	7791	945.225114378695	10
8	7829	947.772506603117	9
8	7833	947.967946644159	10
8	7838	948.361871692913	11
8	7840	949.088620107478	12
8	7872	951.8043781778	13
8	7874	952.074796570841	14
8	7881	953.659471385908	15
8	7883	953.831086825841	16
8	7923	957.230720136363	15
8	7927	957.404170834115	16
8	7932	957.472745507734	15
8	7940	957.554374713822	14
8	7955	957.798514487575	13
8	7992	959.670884049468	12
8	8007	959.898932298601	11
8	8017	960.09578203217	12
8	8054	962.665704372204	13
8	8071	964.016278103203	14
8	8073	964.942608879603	15
8	8075	965.006909386975	16
8	8080	965.532948179026	15
8	8090	966.815635567654	14
8	8094	966.941626002298	15
8	8097	967.066504405301	14
8	8114	968.61743323798	15
8	8116	968.786719296474	16
8	8131	969.529978682736	15
8	8148	970.931289280021	16
8	8155	971.875287894884	17
8	8175	979.454722483277	16
8	8192	983.82608614852	17
8	8202	984.352977005307	16
8	8214	985.645860599107	17
8	8224	987.664096724827	16
8	8251	988.318930769859	15
8	8266	989.03177004362	16
8	8278	989.872642560656	17
8	8283	989.986167566248	16
8	8290	991.439996227044	17
8	8312	993.229230479074	18
8	8339	996.234096818813	19
8	8344	997.678057323178	18
8	8359	1000.115842561159	17
8	8363	1000.15142682713	18
8	8386	1001.222169111547	17
8	8396	1001.470260581279	16
8	8413	1006.611462571617	17
8	8415	1007.048372049722	18
8	8425	1008.267235689048	17
8	8432	1009.12109905657	18
8	8434	1009.605613535378	19
8	8444	1018.101218904427	18
8	8454	1018.406717475593	17
8	8461	1018.468754841718	18
8	8463	1020.052775011089	19
8	8490	1027.704794655948	20
8	8525	1037.700727687172	19
8	8535	1038.677602751337	18
8	8552	1041.280472820399	19
8	8554	1042.152782220325	20
8	8584	1044.925182542708	19
8	8626	1047.425243782752	18
8	8631	1047.429465911599	17
8	8646	1047.668705198362	16
8	8669	1048.467354343169	15
8	8674	1048.502283916672	14
8	8689	1048.887085125203	13
8	8703	1049.383013527154	14
8	8743	1053.550100568945	15
8	8745	1053.698661337655	16
8	8747	1054.365522376543	17
8	8766	1055.049242474234	18
8	8776	1055.378337792888	17
8	8786	1055.569084834049	18
8	8828	1060.569446722355	19
8	8843	1064.233746511231	18
8	8868	1065.512689830684	17
8	8880	1065.897814180512	18
8	8942	1070.137577318651	17
8	8960	1072.050613043759	16
8	8965	1072.051373473362	15
8	8977	1074.432554374591	16
8	8982	1075.847213240467	15
8	8999	1078.157021831747	16
8	9011	1081.988176633223	17
8	9028	1083.709489924182	18
8	9043	1084.392111379333	17
8	9050	1086.59368017397	18
8	9062	1091.900048710379	19
8	9092	1102.072402998114	18
8	9102	1106.237658922092	17
8	9112	1106.520951374814	16
8	9116	1106.684873067981	17
8	9126	1107.357302881374	18
8	9131	1108.378461175565	17
8	9140	1108.755522231	18
8	9145	1109.082678573482	19
8	9154	1116.548065166492	20
8	9182	1117.776381870104	19
8	9229	1122.899557803396	18
8	9234	1123.02578034971	17
8	9307	1126.873534755722	16
8	9327	1127.156007548328	15
8	9339	1127.621913909324	14
8	9347	1127.735916431604	13
8	9354	1128.465826373756	14
8	9369	1130.359037225785	13
8	9381	1131.880616411494	14
8	9403	1133.44878161744	15
8	9413	1133.679664179494	14
8	9423	1133.746934062626	13
8	9430	1133.820736705348	12
8	9445	1134.976576887221	13
8	9450	1135.309558589833	12
8	9467	1136.71850858442	13
8	9472	1136.848390697905	12
8	9479	1137.477600067269	13
8	9481	1137.625469743755	14
8	9483	1138.00979262225	15
8	9485	1139.239914404875	16
8	9487	1139.945393893467	17
8	9489	1140.200407252395	18
8	9549	1156.700191475876	17
8	9559	1157.986147776786	16
8	9574	1158.82030981649	15
8	9581	1159.095951549073	16
8	9616	1161.638372459807	15
8	9638	1165.263687065353	16
8	9642	1165.484322466123	17
8	9670	1167.408528713312	16
8	9677	1167.564866461123	17
8	9684	1167.86115598786	16
8	9699	1169.340603530458	17
8	9713	1170.202627205935	18
8	9728	1173.298132051	19
8	9748	1176.697312273913	18
8	9780	1185.464464104539	19
8	9807	1189.715353595532	20
8	9847	1203.219424191846	19
8	9857	1203.391343201237	18
8	9867	1207.949382700865	17
8	9876	1208.447353604173	18
8	9881	1208.745363399574	19
8	9883	1210.20046103864	20
8	9903	1214.28116898998	19
8	9933	1215.826349170137	18
8	9938	1215.903667361863	17
8	9955	1217.223539839222	18
8	9975	1219.396400791631	17
8	10005	1220.597279787239	16
8	10015	1222.026394020701	15
8	10032	1222.529364451894	16
8	10054	1224.409518916175	17
8	10064	1225.283426051147	16
8	10068	1225.325914381137	17
8	10075	1226.128791807445	18
8	10113	1231.051944438201	17
8	10123	1231.359858292261	16
8	10128	1231.671944010595	15