version 2
run Multitask30-1-20150106-11:37:57-3216
attr configname Multitask30
attr datetime 20150106-11:37:57
attr experiment Multitask30
attr inifile omnetpp.ini
attr iterationvars ""
attr iterationvars2 $repetition=1
attr measurement ""
attr network Multitask
attr processid 3216
attr repetition 1
attr replication #1
attr resultdir results
attr runnumber 1
attr seedset 1

vector 8  Multitask.allocateQ2  queueLength:vector  ETV
attr interpolationmode  sample-hold
attr title  "queue length, vector"
vector 11  Multitask.queue3  queueLength:vector  ETV
attr interpolationmode  sample-hold
attr title  "queue length, vector"
vector 13  Multitask.queue3  busy:vector  ETV
attr interpolationmode  sample-hold
attr title  "server busy state, vector"
vector 15  Multitask.queue4  queueLength:vector  ETV
attr interpolationmode  sample-hold
attr title  "queue length, vector"
vector 17  Multitask.queue4  busy:vector  ETV
attr interpolationmode  sample-hold
attr title  "server busy state, vector"
vector 19  Multitask.queue5  queueLength:vector  ETV
attr interpolationmode  sample-hold
attr title  "queue length, vector"
vector 21  Multitask.queue5  busy:vector  ETV
attr interpolationmode  sample-hold
attr title  "server busy state, vector"
vector 23  Multitask.queue6  queueLength:vector  ETV
attr interpolationmode  sample-hold
attr title  "queue length, vector"
vector 25  Multitask.queue6  busy:vector  ETV
attr interpolationmode  sample-hold
attr title  "server busy state, vector"
vector 27  Multitask.queue7  queueLength:vector  ETV
attr interpolationmode  sample-hold
attr title  "queue length, vector"
vector 29  Multitask.queue7  busy:vector  ETV
attr interpolationmode  sample-hold
attr title  "server busy state, vector"
vector 30  Multitask.resourceCPU  amount:vector  ETV
attr interpolationmode  sample-hold
attr title  "available resource, vector"
vector 12  Multitask.queue3  queueingTime:vector  ETV
attr interpolationmode  none
attr title  "queueing time at dequeue, vector"
attr unit  s
vector 28  Multitask.queue7  queueingTime:vector  ETV
attr interpolationmode  none
attr title  "queueing time at dequeue, vector"
attr unit  s
vector 20  Multitask.queue5  queueingTime:vector  ETV
attr interpolationmode  none
attr title  "queueing time at dequeue, vector"
attr unit  s
vector 24  Multitask.queue6  queueingTime:vector  ETV
attr interpolationmode  none
attr title  "queueing time at dequeue, vector"
attr unit  s
vector 16  Multitask.queue4  queueingTime:vector  ETV
attr interpolationmode  none
attr title  "queueing time at dequeue, vector"
attr unit  s
vector 9  Multitask.allocateQ2  queueingTime:vector  ETV
attr interpolationmode  none
attr title  "queueing time at dequeue, vector"
attr unit  s
vector 0  Multitask.sink  lifeTime:vector  ETV
attr interpolationmode  none
attr title  "lifetime of arrived jobs, vector"
attr unit  s
vector 1  Multitask.sink  totalQueueingTime:vector  ETV
attr interpolationmode  none
attr title  "the total time spent in queues by arrived jobs, vector"
attr unit  s
vector 4  Multitask.sink  queuesVisited:vector  ETV
attr interpolationmode  none
attr title  "the total number of queues visited by arrived jobs, vector"
vector 3  Multitask.sink  totalServiceTime:vector  ETV
attr interpolationmode  none
attr title  "the total time spent  by arrived jobs, vector"
attr unit  s
vector 2  Multitask.sink  totalDelayTime:vector  ETV
attr interpolationmode  none
attr title  "the total time spent in delay nodes by arrived jobs, vector"
attr unit  s
vector 5  Multitask.sink  delaysVisited:vector  ETV
attr interpolationmode  none
attr title  "the total number of delays visited by arrived jobs, vector"
vector 6  Multitask.sink  generation:vector  ETV
attr interpolationmode  none
attr title  "the generation of the arrived jobs, vector"
0	12880	1506.189628733217	1506.1896287332
0	12913	1511.748625892041	1511.748625892
0	12936	1512.763358205688	1512.7633582057
0	12947	1512.863096798534	1512.8630967985
0	12961	1513.526548944341	1513.5265489443
0	12994	1519.711957825534	1519.7119578255
0	13005	1520.375677536565	1520.3756775366
0	13031	1522.923971886047	1522.923971886
0	13037	1522.993492366877	1522.9934923669
0	13050	1523.256203918448	1523.2562039184
0	13084	1526.988468929346	1526.9884689293
0	13105	1527.870015647044	1527.870015647
0	13116	1528.03141123648	1528.0314112365
0	13132	1533.845245935348	1533.8452459353
0	13138	1533.996776784389	1533.9967767844
0	13149	1538.922633860503	1538.9226338605
0	13160	1539.488165436609	1539.4881654366
0	13176	1541.634100073212	1541.6341000732
0	13217	1545.80341163096	1545.803411631
0	13258	1552.534011891907	1552.5340118919
0	13268	1552.649789199891	1552.6497891999
0	13295	1558.491153195255	1558.4911531953
0	13307	1558.887990767709	1558.8879907677
0	13329	1564.089452270411	1564.0894522704
0	13361	1568.37639461043	1568.3763946104
1	12880	1506.189628733217	1165.6077997631
1	12913	1511.748625892041	1179.9097278259
1	12936	1512.763358205688	1153.9845931844
1	12947	1512.863096798534	1236.6709251484
1	12961	1513.526548944341	1164.5524825523
1	12994	1519.711957825534	1191.4225051087
1	13005	1520.375677536565	1186.6020182592
1	13031	1522.923971886047	1240.8341608201
1	13037	1522.993492366877	1272.7673334637
1	13050	1523.256203918448	1241.2726230173
1	13084	1526.988468929346	1176.4598950168
1	13105	1527.870015647044	1218.4208052201
1	13116	1528.03141123648	1183.2431524209
1	13132	1533.845245935348	1178.1577878536
1	13138	1533.996776784389	1173.6958985858
1	13149	1538.922633860503	1252.9781779656
1	13160	1539.488165436609	1228.0443053846
1	13176	1541.634100073212	1283.3113648172
1	13217	1545.80341163096	1224.2337785655
1	13258	1552.534011891907	1182.8360497037
1	13268	1552.649789199891	1244.4775650663
1	13295	1558.491153195255	1200.8554181221
1	13307	1558.887990767709	1251.6155257718
1	13329	1564.089452270411	1225.4606651281
1	13361	1568.37639461043	1245.5846179838
2	12880	1506.189628733217	0
2	12913	1511.748625892041	0
2	12936	1512.763358205688	0
2	12947	1512.863096798534	0
2	12961	1513.526548944341	0
2	12994	1519.711957825534	0
2	13005	1520.375677536565	0
2	13031	1522.923971886047	0
2	13037	1522.993492366877	0
2	13050	1523.256203918448	0
2	13084	1526.988468929346	0
2	13105	1527.870015647044	0
2	13116	1528.03141123648	0
2	13132	1533.845245935348	0
2	13138	1533.996776784389	0
2	13149	1538.922633860503	0
2	13160	1539.488165436609	0
2	13176	1541.634100073212	0
2	13217	1545.80341163096	0
2	13258	1552.534011891907	0
2	13268	1552.649789199891	0
2	13295	1558.491153195255	0
2	13307	1558.887990767709	0
2	13329	1564.089452270411	0
2	13361	1568.37639461043	0
3	12880	1506.189628733217	159.49474635709
3	12913	1511.748625892041	72.689435502801
3	12936	1512.763358205688	102.66917994729
3	12947	1512.863096798534	135.42841737531
3	12961	1513.526548944341	103.74424325231
3	12994	1519.711957825534	86.378171490353
3	13005	1520.375677536565	98.184639199202
3	13031	1522.923971886047	117.25004710675
3	13037	1522.993492366877	100.19294559744
3	13050	1523.256203918448	136.48326314368
3	13084	1526.988468929346	158.47245313582
3	13105	1527.870015647044	110.28847004493
3	13116	1528.03141123648	120.70637180559
3	13132	1533.845245935348	81.637309032726
3	13138	1533.996776784389	153.79021354753
3	13149	1538.922633860503	82.280205984504
3	13160	1539.488165436609	124.90639514895
3	13176	1541.634100073212	103.00132010116
3	13217	1545.80341163096	146.75761624185
3	13258	1552.534011891907	116.45105309394
3	13268	1552.649789199891	146.4067144238
3	13295	1558.491153195255	113.37022023343
3	13307	1558.887990767709	95.451375714261
3	13329	1564.089452270411	157.79994343293
3	13361	1568.37639461043	160.2222188903
4	12880	1506.189628733217	50
4	12913	1511.748625892041	36
4	12936	1512.763358205688	30
4	12947	1512.863096798534	69
4	12961	1513.526548944341	51
4	12994	1519.711957825534	31
4	13005	1520.375677536565	53
4	13031	1522.923971886047	48
4	13037	1522.993492366877	40
4	13050	1523.256203918448	66
4	13084	1526.988468929346	64
4	13105	1527.870015647044	51
4	13116	1528.03141123648	47
4	13132	1533.845245935348	31
4	13138	1533.996776784389	57
4	13149	1538.922633860503	45
4	13160	1539.488165436609	50
4	13176	1541.634100073212	55
4	13217	1545.80341163096	44
4	13258	1552.534011891907	50
4	13268	1552.649789199891	41
4	13295	1558.491153195255	46
4	13307	1558.887990767709	70
4	13329	1564.089452270411	68
4	13361	1568.37639461043	62
5	12880	1506.189628733217	0
5	12913	1511.748625892041	0
5	12936	1512.763358205688	0
5	12947	1512.863096798534	0
5	12961	1513.526548944341	0
5	12994	1519.711957825534	0
5	13005	1520.375677536565	0
5	13031	1522.923971886047	0
5	13037	1522.993492366877	0
5	13050	1523.256203918448	0
5	13084	1526.988468929346	0
5	13105	1527.870015647044	0
5	13116	1528.03141123648	0
5	13132	1533.845245935348	0
5	13138	1533.996776784389	0
5	13149	1538.922633860503	0
5	13160	1539.488165436609	0
5	13176	1541.634100073212	0
5	13217	1545.80341163096	0
5	13258	1552.534011891907	0
5	13268	1552.649789199891	0
5	13295	1558.491153195255	0
5	13307	1558.887990767709	0
5	13329	1564.089452270411	0
5	13361	1568.37639461043	0
6	12880	1506.189628733217	0
6	12913	1511.748625892041	0
6	12936	1512.763358205688	0
6	12947	1512.863096798534	0
6	12961	1513.526548944341	0
6	12994	1519.711957825534	0
6	13005	1520.375677536565	0
6	13031	1522.923971886047	0
6	13037	1522.993492366877	0
6	13050	1523.256203918448	0
6	13084	1526.988468929346	0
6	13105	1527.870015647044	0
6	13116	1528.03141123648	0
6	13132	1533.845245935348	0
6	13138	1533.996776784389	0
6	13149	1538.922633860503	0
6	13160	1539.488165436609	0
6	13176	1541.634100073212	0
6	13217	1545.80341163096	0
6	13258	1552.534011891907	0
6	13268	1552.649789199891	0
6	13295	1558.491153195255	0
6	13307	1558.887990767709	0
6	13329	1564.089452270411	0
6	13361	1568.37639461043	0
8	0	0	0
8	163	4.908771577864	1
8	167	5.051430106743	2
8	169	5.054525324716	3
8	171	5.396058265118	4
8	173	5.433393786258	5
8	178	5.713141486587	6
8	198	7.356095517426	5
8	209	7.434896906781	6
8	212	7.440135682158	5
8	222	7.739597702756	6
8	237	8.364093831814	5
8	247	9.038183688038	4
8	269	11.078933458456	5
8	271	11.558797106077	6
8	286	12.36904572144	5
8	293	12.702184695774	6
8	295	12.741252381599	7
8	305	13.236101099721	6
8	317	13.684614829499	7
8	319	13.868863545432	8
8	321	14.383494021879	9
8	323	17.263151238513	10
8	328	18.263674182569	9
8	335	18.728236668708	10
8	337	18.798154893402	11
8	351	20.043734986129	12
8	368	22.179198470494	11
8	401	23.398004825326	12
8	403	23.760681951959	13
8	425	26.964778379468	14
8	432	27.416960156722	15
8	457	29.385963148047	14
8	469	29.982105841745	15
8	473	30.724773516602	16
8	486	30.768445363899	15
8	511	31.263324166717	14
8	551	33.118031740908	13
8	556	33.16295846503	12
8	561	33.175894583728	11
8	573	33.594874200658	12
8	579	33.735910230132	13
8	582	33.750076790425	12
8	592	34.313116391626	13
8	607	35.085095490478	12
8	611	35.140049685617	13
8	636	39.47897160105	14
8	641	39.702779734771	13
8	645	39.704575172354	14
8	648	39.808082622367	13
8	665	40.428724782304	14
8	667	43.469851790804	15
8	672	43.668119845791	14
8	681	43.79250909191	15
8	691	44.0308383811	14
8	699	44.091242446447	13
8	709	44.338715043992	12
8	714	44.382792725508	11
8	719	44.54614251283	10
8	728	45.09407940715	11
8	733	45.929035724699	12
8	745	47.354025014612	13
8	764	50.776929607544	14
8	776	54.747690682102	15
8	784	55.266190974169	14
8	794	55.532258153774	13
8	801	55.776226375446	14
8	816	56.397636930241	13
8	821	56.416747613578	12
8	828	56.621523669317	13
8	833	57.096826002162	12
8	840	57.867920467782	13
8	842	58.48031618338	14
8	844	58.727248609813	15
8	849	58.897561283069	14
8	854	58.96144298415	13
8	859	59.00179921202	12
8	876	60.776134184242	13
8	878	60.83579085819	14
8	880	60.839420181855	15
8	892	65.954622989836	16
8	904	69.491142873366	17
8	909	75.004692905058	16
8	921	75.582341391278	17
8	948	81.350598892922	18
8	953	84.633985446553	17
8	965	84.793988493158	18
8	970	85.55019441786	17
8	977	86.656214555552	18
8	987	88.035387591374	17
8	1011	90.386193756295	18
8	1039	93.283090995167	17
8	1081	100.868871599084	18
8	1101	103.905587483556	17
8	1123	104.778025306241	18
8	1125	104.970680824113	19
8	1130	105.295200922338	18
8	1150	106.564555660914	17
8	1177	110.042133833845	18
8	1192	112.648035841912	17
8	1217	114.29713800274	16
8	1224	114.393027838075	15
8	1239	114.791890167009	16
8	1259	115.557730660456	15
8	1276	117.362418704186	16
8	1313	123.168629509167	17
8	1315	123.588447058754	18
8	1350	127.629820424068	17
8	1382	133.537522636384	18
8	1387	133.722785144032	17
8	1419	136.512898580549	18
8	1421	138.118773625086	19
8	1423	138.490416900703	20
8	1428	139.221280266563	19
8	1458	143.450432980429	18
8	1483	144.865424412437	17
8	1492	145.05352813595	18
8	1505	148.934955034987	17
8	1510	149.018014227367	16
8	1524	150.553696795577	17
8	1539	150.864531270733	16
8	1554	151.857007172507	17
8	1569	152.979878259261	16
8	1576	153.671561528785	17
8	1578	153.796176006743	18
8	1593	155.658237524318	17
8	1618	157.209635683973	16
8	1635	157.889674891989	15
8	1643	157.989857526308	14
8	1648	158.083714506267	13
8	1660	161.292591672198	14
8	1662	161.378270694936	15
8	1669	165.725348219498	16
8	1674	165.816100144488	15
8	1679	165.833265617372	14
8	1691	167.108180795629	15
8	1698	169.717555885068	16
8	1700	170.586861572843	17
8	1715	174.114364013589	16
8	1722	175.36912484192	17
8	1724	175.386529723692	18
8	1726	175.575004072184	19
8	1731	176.16393350517	18
8	1738	179.233227747209	19
8	1763	185.434122896075	18
8	1778	186.525610289413	17
8	1788	187.282840715158	16
8	1800	194.66535842991	17
8	1820	196.078292122713	16
8	1845	198.378673268989	15
8	1852	199.144407496948	16
8	1887	203.428466662429	15
8	1899	204.676354974053	16
8	1906	204.828541039455	17
8	1926	206.887761705435	16
8	1938	209.216022205819	17
8	1940	210.819458390565	18
8	1942	215.344123884623	19
8	1944	220.138152212766	20
8	1949	223.113575136184	19
8	1964	224.827096378583	18
8	1969	224.848596627955	17
8	1981	225.503160249878	18
8	1988	226.740660884837	19
8	1993	228.286981926281	18
8	2010	230.102542182909	19
8	2115	242.154930141445	18
8	2142	246.022605894058	19
8	2144	246.242304053398	20
8	2156	246.634315851002	19
8	2179	247.195238279904	18
8	2191	249.470160449319	19
8	2201	250.318210220556	18
8	2206	250.342304337405	17
8	2216	250.638044499809	16
8	2223	251.813729229141	17
8	2225	251.879859172186	18
8	2235	255.960605247838	17
8	2247	258.111637195236	18
8	2252	258.961492573728	17
8	2267	260.188663521156	16
8	2279	260.475431310981	17
8	2321	265.38293682325	18
8	2323	265.749037755237	19
8	2340	267.536383691505	20
8	2350	268.903149825659	19
8	2357	269.059682436658	18
8	2362	269.197961434326	17
8	2367	269.248230129103	16
8	2382	270.040493773498	17
8	2387	270.211000720498	16
8	2394	272.523439150449	17
8	2398	272.765868721717	18
8	2411	273.324144855325	17
8	2426	274.441871581595	16
8	2438	275.330102206963	17
8	2450	277.981995451199	16
8	2472	281.010092889576	17
8	2475	281.012122090044	16
8	2507	282.937662131042	17
8	2532	285.656507811729	16
8	2539	286.937722224819	17
8	2549	288.485296947384	16
8	2556	288.814717361616	17
8	2566	289.586506207521	16
8	2578	290.494847667765	15
8	2583	290.573191281193	14
8	2608	291.876033118066	15
8	2642	293.873542874716	16
8	2646	293.994121749996	17
8	2669	297.737617379615	18
8	2690	300.690193256878	19
8	2696	300.997238906736	18
8	2703	302.372787022169	19
8	2710	303.397253358556	20
8	2735	308.438459514601	19
8	2745	309.453120043614	18
8	2750	309.454188525612	17
8	2772	312.326449792967	18
8	2779	315.053450596612	19
8	2816	321.389992424863	18
8	2824	321.473926944395	17
8	2828	321.499424777149	18
8	2833	322.830469090832	19
8	2845	326.753933425928	20
8	2855	331.383173319096	19
8	2860	331.487520588316	18
8	2884	332.928192248789	17
8	2907	333.719110443347	16
8	2915	333.870958391078	15
8	2927	334.230599438369	14
8	2941	334.518585827889	15
8	2944	334.65630359669	14
8	2967	335.370945471606	15
8	2980	335.568590381936	14
8	3019	337.94830553215	13
8	3026	338.143168835397	14
8	3038	338.521811895569	15
8	3050	341.925638894516	16
8	3052	342.085886384876	17
8	3062	342.66447614984	16
8	3079	344.283159264892	17
8	3086	344.527990469411	18
8	3136	349.605549580463	17
8	3143	349.712906015685	18
8	3153	352.785715888399	17
8	3188	358.609417077933	16
8	3193	358.676415299177	15
8	3198	358.681860341762	14
8	3210	359.878862896766	15
8	3217	361.709134301516	16
8	3222	361.937642690814	15
8	3237	362.409404969596	14
8	3259	362.940433275376	13
8	3263	362.97800356445	14
8	3281	364.176704762177	15
8	3305	367.25836765989	16
8	3328	372.926653502047	15
8	3345	373.378562165971	16
8	3352	374.095375473125	17
8	3354	380.197962143658	18
8	3404	388.686398102067	17
8	3409	388.717717514361	16
8	3429	390.971060766023	15
8	3434	390.996560556329	14
8	3438	391.022468966531	15
8	3448	392.23469123233	16
8	3455	393.974916419372	17
8	3457	394.132905149406	18
8	3467	396.388933915975	17
8	3492	399.997988615422	16
8	3502	400.132406143165	15
8	3509	400.547521748297	16
8	3511	401.653860074865	17
8	3513	402.150267536453	18
8	3540	404.903412841064	17
8	3562	406.107345089405	18
8	3572	410.681880604889	19
8	3574	418.223613458247	20
8	3624	422.688923650821	19
8	3704	431.801655921522	18
8	3709	431.878444825916	17
8	3714	432.035110037186	16
8	3731	433.32631118265	17
8	3736	433.692836805423	16
8	3752	435.563620561496	17
8	3765	436.15024797108	18
8	3770	436.890849576118	17
8	3802	439.570583424562	18
8	3804	442.078785435163	19
8	3816	443.299416378809	20
8	3833	451.394812885107	19
8	3851	452.367682728609	18
8	3866	454.561862933883	17
8	3906	458.0012940206	16
8	3951	459.582274364424	15
8	3973	460.926054077104	16
8	3980	462.157051731013	17
8	4027	472.802625689934	18
8	4044	474.208012603171	19
8	4054	476.467417841047	18
8	4066	477.038663052526	19
8	4071	478.410356917724	18
8	4081	480.394667788568	17
8	4088	480.644069100822	18
8	4090	480.730107775128	19
8	4117	484.009327081567	20
8	4132	484.989546063661	19
8	4152	486.323785386547	18
8	4157	486.463073145944	17
8	4184	490.016941039579	18
8	4189	490.876745405687	17
8	4206	493.035011972932	18
8	4231	494.595530313416	17
8	4241	495.452804569494	16
8	4253	495.817602267765	17
8	4288	498.70999320722	16
8	4333	504.166726451159	15
8	4340	505.181400852964	16
8	4350	507.630490460327	15
8	4355	507.672701628929	14
8	4365	508.78161468284	13
8	4377	510.778018731867	14
8	4382	511.555715748771	13
8	4387	511.767207711983	12
8	4394	512.642347349885	13
8	4401	514.067475545639	14
8	4403	517.165170159569	15
8	4410	517.761449325769	16
8	4412	519.037216912003	17
8	4417	522.334225775265	16
8	4442	524.747368563004	15
8	4454	525.252370823776	16
8	4471	525.858794886629	17
8	4478	526.959433755977	18
8	4480	527.047984124711	19
8	4485	528.585923012118	18
8	4492	531.340270760246	19
8	4502	532.869708191537	18
8	4517	533.277484455905	17
8	4534	534.135226904334	18
8	4536	534.946962074504	19
8	4553	540.161806822207	20
8	4590	544.262746856145	19
8	4595	544.32253525277	18
8	4617	545.496591256195	19
8	4655	549.808924707466	18
8	4685	552.367510604079	17
8	4697	553.416590651773	18
8	4727	556.327334802539	17
8	4732	556.333969436703	16
8	4739	556.751547070214	17
8	4761	559.561362190428	18
8	4771	559.896406492976	17
8	4818	562.462449668802	18
8	4830	564.027770811663	19
8	4835	564.305928217956	18
8	4842	565.88647905426	19
8	4844	566.672915063159	20
8	4849	566.988351628226	19
8	4859	567.304718931433	18
8	4906	571.341325705966	19
8	4910	571.912863026787	20
8	4923	572.011013416602	19
8	4953	575.188941756463	18
8	4957	575.25724211244	19
8	4982	578.429725764958	20
8	4987	580.220580863319	19
8	4994	580.952117875942	20
8	4999	581.934808899318	19
8	5029	589.270913492953	18
8	5039	593.495179010464	17
8	5046	593.846688709372	18
8	5063	598.358937286212	19
8	5073	599.506367352144	18
8	5118	610.936469745193	17
8	5138	612.768002265368	16
8	5145	612.980983062223	17
8	5152	617.62626359261	18
8	5154	618.648427060569	19
8	5164	623.310548914043	18
8	5181	627.060118819469	19
8	5198	632.433901010777	20
8	5213	638.089772289916	19
8	5248	641.503977683697	18
8	5278	643.249396448354	17
8	5298	646.182039674594	16
8	5318	651.203477860329	15
8	5323	651.208348324467	14
8	5375	653.442844709383	15
8	5385	654.89416698062	14
8	5391	654.954442518927	15
8	5393	654.994421366245	16
8	5414	656.10217862333	15
8	5436	657.945624293869	16
8	5458	662.683485356677	17
8	5468	663.384439330041	16
8	5540	670.74321069039	15
8	5567	671.466420623141	14
8	5575	671.476030780356	13
8	5583	671.631214130647	12
8	5590	671.738780607617	13
8	5607	673.444539321619	14
8	5622	674.465484576543	13
8	5654	679.91684124821	12
8	5679	681.804426669918	13
8	5686	681.948069298682	14
8	5688	681.96710334798	15
8	5690	683.563388548553	16
8	5695	684.09327930224	15
8	5702	684.309959560672	16
8	5714	685.547992855575	17
8	5724	685.692037947126	16
8	5734	686.272027208613	15
8	5744	689.212930302471	14
8	5751	690.673173572514	15
8	5753	690.90928413195	16
8	5755	691.145477252311	17
8	5762	695.503559508938	18
8	5764	697.338455343618	19
8	5769	698.804063104473	18
8	5813	710.105648173987	19
8	5831	710.98871717732	18
8	5843	711.820560502646	19
8	5845	711.881294026641	20
8	5860	716.080852769018	19
8	5877	719.814906999104	20
8	5942	724.145002933407	19
8	5947	724.225619674281	18
8	5962	725.365693361743	17
8	5984	726.487890564809	18
8	6001	733.155246278206	19
8	6003	734.679335840822	20
8	6083	744.655500954003	19
8	6090	744.754840221258	18
8	6095	744.765962714206	17
8	6102	744.883210223279	16
8	6110	745.131256335713	15
8	6114	745.285301987209	16
8	6124	746.036358236021	17
8	6127	746.087665165469	16
8	6139	746.651051131727	17
8	6149	750.915495071831	16
8	6156	751.035121056579	17
8	6203	759.205169649827	16
8	6248	763.325666106228	17
8	6258	764.838023535263	16
8	6265	770.232020377477	17
8	6282	775.763539423608	18
8	6309	778.411370666969	19
8	6335	781.444482476449	20
8	6353	782.064652197318	19
8	6363	782.233064883066	18
8	6373	782.356128168592	17
8	6381	782.584907870224	16
8	6386	782.628486241652	15
8	6398	782.753041240823	14
8	6410	782.998456323023	15
8	6413	783.002719185269	14
8	6420	783.281948015207	13
8	6435	784.379761163764	14
8	6439	784.447946008089	15
8	6444	785.120719145982	16
8	6456	788.624933404805	17
8	6468	793.361588964775	18
8	6475	794.041721823766	19
8	6481	794.38507045527	20
8	6484	794.45860968253	19
8	6501	795.109621683851	18
8	6509	795.271523806582	17
8	6534	802.489477707702	18
8	6551	810.004515541504	19
8	6606	813.126163906396	18
8	6678	820.580549485603	17
8	6685	820.788291938551	16
8	6693	820.874078912475	15
8	6700	820.974129315725	16
8	6708	821.5251247954	15
8	6713	821.528955629364	14
8	6725	821.716705040458	13
8	6730	821.763306005241	12
8	6735	821.801110836398	11
8	6750	822.453871708351	10
8	6767	823.219973967246	11
8	6772	823.304411127719	10
8	6784	823.49684523195	11
8	6796	825.577300070462	12
8	6798	825.848247641351	13
8	6810	826.464255368252	14
8	6820	828.351017936258	15
8	6822	829.207111988896	16
8	6829	830.763807965652	17
8	6833	831.367304536417	18
8	6838	832.718482806596	19
8	6850	834.648689767736	18
8	6855	834.650157357841	17
8	6863	834.937284385133	16
8	6878	835.274419288237	15
8	6895	837.072075586981	16
8	6910	838.766631512743	15
8	6921	840.406277439504	16
8	6932	840.756641316286	15
8	6944	841.088191304471	16
8	6949	841.520379216983	15
8	6959	842.469026103923	14
8	6966	842.952786225437	15
8	6971	843.182535588016	14
8	6976	843.586966044875	13
8	6988	844.273536819122	14
8	7013	846.231947422013	13
8	7017	846.303100119975	14
8	7022	847.121641426524	15
8	7029	848.727061791159	16
8	7044	849.726211742482	15
8	7079	851.235678798262	14
8	7094	851.797027118586	13
8	7104	853.110099066701	12
8	7126	854.435533461018	11
8	7134	854.676589635098	10
8	7139	854.848856908586	9
8	7158	856.035572244988	10
8	7181	857.510597883447	9
8	7185	857.57786921035	10
8	7193	858.012951611572	9
8	7200	859.944189187028	10
8	7202	860.935159082294	11
8	7204	863.354464780156	12
8	7206	863.981680503636	13
8	7218	864.79600158302	14
8	7220	864.85803795077	15
8	7222	864.993942829563	16
8	7224	865.32453445112	17
8	7239	867.190751057682	16
8	7243	867.259310918881	17
8	7266	870.825570905903	16
8	7281	871.699914556719	15
8	7296	872.651248620697	14
8	7318	874.865801645381	15
8	7348	881.946196817997	14
8	7360	885.299975200519	15
8	7375	886.711712098252	14
8	7380	886.747953449436	13
8	7385	886.753802154351	12
8	7397	888.57886649554	13
8	7402	891.405198494785	12
8	7414	892.597200573645	13
8	7416	892.642565727462	14
8	7418	893.301090588098	15
8	7425	896.514245539799	16
8	7435	898.895459910347	15
8	7440	898.92292645678	14
8	7449	899.399910463335	15
8	7474	901.961650903966	16
8	7484	903.485930599661	15
8	7519	907.131128039691	14
8	7539	907.328666877275	13
8	7569	909.212936132842	12
8	7578	910.112596693038	13
8	7603	912.524924944238	14
8	7610	912.652681411247	15
8	7620	912.948880934869	14
8	7627	913.158225831363	15
8	7629	913.661131614141	16
8	7631	914.76706146249	17
8	7633	915.596099777255	18
8	7635	916.097918496602	19
8	7655	918.805398564136	18
8	7662	920.104973757361	19
8	7677	921.57829535793	18
8	7684	928.977305042467	19
8	7689	933.746191175055	18
8	7724	935.449614249014	17
8	7784	937.466339343406	16
8	7793	937.71825389798	17
8	7806	937.991136337617	16
8	7810	938.050119732395	17
8	7815	940.511772987324	18
8	7820	940.619935962131	17
8	7825	940.739616369527	16
8	7837	941.386279576212	17
8	7842	941.478084432519	16
8	7854	943.657582891579	17
8	7856	944.215375272686	18
8	7858	948.390480437622	19
8	7870	949.265654030074	20
8	7875	960.070563779855	19
8	7890	960.811867650899	18
8	7905	961.916284596164	17
8	7920	963.340768887408	16
8	7935	964.028163904221	15
8	7947	964.496146308078	16
8	7957	965.255120437406	15
8	7974	967.485692193599	16
8	7976	969.030044871773	17
8	7983	975.086937223042	18
8	7985	975.156268048703	19
8	8017	978.910158395018	20
8	8039	981.506222023153	19
8	8067	983.519864798219	18
8	8094	986.461866691876	19
8	8096	986.860381698544	20
8	8126	988.951744533213	19
8	8133	990.652002245206	20
8	8148	993.213093730795	19
8	8163	993.700922994606	18
8	8177	994.637338186989	19
8	8235	997.611706285822	18
8	8250	998.135151716107	17
8	8260	998.720980848471	16
8	8270	999.541653313937	15
8	8274	999.691074667281	16
8	8279	1000.05260297521	17
8	8281	1000.23567256035	18
8	8336	1008.535543057524	17
8	8358	1010.998839950446	18
8	8360	1011.782143974283	19
8	8380	1014.593654787922	18
8	8392	1019.488312338734	19
8	8429	1027.538489025767	20
8	8434	1028.121851262884	19
8	8464	1033.497694833757	18
8	8484	1034.678929574972	17
8	8494	1036.878857439285	16
8	8506	1038.894143625831	17
8	8518	1039.861009254491	16
8	8526	1039.935248440466	15
8	8543	1043.645367463454	16
8	8553	1044.181849909248	15
8	8573	1045.738210414678	14
8	8580	1045.869699419613	15
8	8585	1046.197496382633	14
8	8592	1046.941948027985	15
8	8624	1049.232156921873	16
8	8646	1051.482610188599	17
8	8648	1051.597358406341	18
8	8653	1052.006639185558	17
8	8663	1054.769640964685	16
8	8670	1056.038079111605	17
8	8686	1059.054047498823	18
8	8697	1059.165719317209	17
8	8715	1059.974873578468	18
8	8723	1060.099691611744	17
8	8740	1060.534004918676	16
8	8751	1060.762199296288	15
8	8755	1060.804602760421	16
8	8758	1060.879154781332	15
8	8762	1060.914242392436	16
8	8778	1061.246346660419	15
8	8793	1061.731526605683	14
8	8798	1061.835249469728	13
8	8827	1062.629858384451	12
8	8843	1062.972114316112	11
8	8848	1062.99126925351	10
8	8855	1062.997534825909	11
8	8862	1063.177081719605	12
8	8866	1063.429030257332	13
8	8871	1064.084580500558	14
8	8873	1064.16841829621	15
8	8900	1068.890228165007	16
8	8922	1070.348650291313	17
8	8927	1070.737130818902	16
8	8942	1071.966926113805	15
8	8952	1072.688691611292	14
8	8957	1072.843064627387	13
8	8971	1073.138563064255	14
8	8974	1073.149656023768	13
8	8981	1074.353927373982	14
8	8983	1074.409838345326	15
8	8993	1074.763275638756	14
8	9018	1075.578927466299	13
8	9029	1076.667645931062	14
8	9034	1077.04564701448	13
8	9067	1078.584146013623	14
8	9072	1079.232582748716	13
8	9079	1079.92371085583	14
8	9081	1080.545429898067	15
8	9086	1080.768036373067	14
8	9111	1082.836414502405	13
8	9122	1083.307462208058	14
8	9133	1084.51434995792	13
8	9137	1084.829820658406	14
8	9139	1085.078366388396	15
8	9142	1085.145393937011	14
8	9146	1085.279043757976	15
8	9149	1085.394599342992	14
8	9169	1086.390118674428	13
8	9201	1088.188616928153	14
8	9211	1088.701080499994	13
8	9236	1089.778407901987	12
8	9241	1089.810417147557	11
8	9253	1090.364733401033	12
8	9255	1090.842065278463	13
8	9257	1091.186708151836	14
8	9259	1092.837846301495	15
8	9261	1094.760590047923	16
8	9263	1096.673040524576	17
8	9265	1098.986323649847	18
8	9267	1100.992335210341	19
8	9297	1105.660799682435	18
8	9317	1106.458999566953	17
8	9329	1106.778434056839	18
8	9336	1108.586948388156	19
8	9338	1110.285445717114	20
8	9343	1110.883836035526	19
8	9348	1110.952795145349	18
8	9355	1111.045660470214	19
8	9377	1112.406080763309	20
8	9387	1115.385791535195	19
8	9412	1116.541584197152	18
8	9422	1116.756066629382	17
8	9457	1119.188631382563	16
8	9462	1119.204784443565	15
8	9472	1119.927804141616	14
8	9481	1120.330447653504	15
8	9484	1120.474671746953	14
8	9489	1120.494093732027	13
8	9511	1124.244748403404	14
8	9528	1125.264659764698	15
8	9543	1126.94685134738	14
8	9548	1127.233494236317	13
8	9555	1127.524696393	12
8	9567	1128.772549895084	13
8	9570	1128.844435191121	12
8	9575	1129.020346944842	11
8	9582	1129.161991988854	12
8	9587	1129.278215531404	11
8	9594	1130.107354889048	12
8	9599	1131.439690153708	11
8	9609	1131.732897067873	10
8	9616	1132.126992684421	11
8	9618	1132.385938351148	12
8	9620	1132.440187112021	13
8	9622	1133.616558095588	14
8	9639	1135.86301944481	15
8	9641	1136.013416025883	16
8	9663	1142.298897379651	17
8	9668	1142.508314995314	16
8	9680	1144.284062898994	17
8	9695	1152.593675342765	16
8	9700	1152.633364622627	15
8	9707	1152.822014670427	16
8	9709	1156.074138173518	17
8	9714	1157.430081086608	16
8	9718	1157.475557135087	17
8	9731	1158.478607246582	16
8	9746	1159.337857664627	15
8	9751	1159.401077165707	14
8	9761	1159.655908724153	13
8	9778	1160.644356471496	14
8	9800	1163.85018423884	15
8	9802	1165.866910901409	16
8	9809	1168.639709578789	17
8	9816	1170.65360263139	18
8	9881	1176.709461302042	17
8	9886	1176.777157799117	16
8	9901	1177.51292623574	15