version 2
run Multitask30-7-20150106-11:37:57-5548
attr configname Multitask30
attr datetime 20150106-11:37:57
attr experiment Multitask30
attr inifile omnetpp.ini
attr iterationvars ""
attr iterationvars2 $repetition=7
attr measurement ""
attr network Multitask
attr processid 5548
attr repetition 7
attr replication #7
attr resultdir results
attr runnumber 7
attr seedset 7

vector 8  Multitask.allocateQ2  queueLength:vector  ETV
attr interpolationmode  sample-hold
attr title  "queue length, vector"
vector 11  Multitask.queue3  queueLength:vector  ETV
attr interpolationmode  sample-hold
attr title  "queue length, vector"
vector 13  Multitask.queue3  busy:vector  ETV
attr interpolationmode  sample-hold
attr title  "server busy state, vector"
vector 15  Multitask.queue4  queueLength:vector  ETV
attr interpolationmode  sample-hold
attr title  "queue length, vector"
vector 17  Multitask.queue4  busy:vector  ETV
attr interpolationmode  sample-hold
attr title  "server busy state, vector"
vector 19  Multitask.queue5  queueLength:vector  ETV
attr interpolationmode  sample-hold
attr title  "queue length, vector"
vector 21  Multitask.queue5  busy:vector  ETV
attr interpolationmode  sample-hold
attr title  "server busy state, vector"
vector 23  Multitask.queue6  queueLength:vector  ETV
attr interpolationmode  sample-hold
attr title  "queue length, vector"
vector 25  Multitask.queue6  busy:vector  ETV
attr interpolationmode  sample-hold
attr title  "server busy state, vector"
vector 27  Multitask.queue7  queueLength:vector  ETV
attr interpolationmode  sample-hold
attr title  "queue length, vector"
vector 29  Multitask.queue7  busy:vector  ETV
attr interpolationmode  sample-hold
attr title  "server busy state, vector"
vector 30  Multitask.resourceCPU  amount:vector  ETV
attr interpolationmode  sample-hold
attr title  "available resource, vector"
vector 12  Multitask.queue3  queueingTime:vector  ETV
attr interpolationmode  none
attr title  "queueing time at dequeue, vector"
attr unit  s
vector 24  Multitask.queue6  queueingTime:vector  ETV
attr interpolationmode  none
attr title  "queueing time at dequeue, vector"
attr unit  s
vector 16  Multitask.queue4  queueingTime:vector  ETV
attr interpolationmode  none
attr title  "queueing time at dequeue, vector"
attr unit  s
vector 28  Multitask.queue7  queueingTime:vector  ETV
attr interpolationmode  none
attr title  "queueing time at dequeue, vector"
attr unit  s
vector 20  Multitask.queue5  queueingTime:vector  ETV
attr interpolationmode  none
attr title  "queueing time at dequeue, vector"
attr unit  s
vector 9  Multitask.allocateQ2  queueingTime:vector  ETV
attr interpolationmode  none
attr title  "queueing time at dequeue, vector"
attr unit  s
vector 0  Multitask.sink  lifeTime:vector  ETV
attr interpolationmode  none
attr title  "lifetime of arrived jobs, vector"
attr unit  s
vector 1  Multitask.sink  totalQueueingTime:vector  ETV
attr interpolationmode  none
attr title  "the total time spent in queues by arrived jobs, vector"
attr unit  s
vector 4  Multitask.sink  queuesVisited:vector  ETV
attr interpolationmode  none
attr title  "the total number of queues visited by arrived jobs, vector"
vector 3  Multitask.sink  totalServiceTime:vector  ETV
attr interpolationmode  none
attr title  "the total time spent  by arrived jobs, vector"
attr unit  s
vector 2  Multitask.sink  totalDelayTime:vector  ETV
attr interpolationmode  none
attr title  "the total time spent in delay nodes by arrived jobs, vector"
attr unit  s
vector 5  Multitask.sink  delaysVisited:vector  ETV
attr interpolationmode  none
attr title  "the total number of delays visited by arrived jobs, vector"
vector 6  Multitask.sink  generation:vector  ETV
attr interpolationmode  none
attr title  "the generation of the arrived jobs, vector"
0	13510	1604.600102268211	1604.6001022682
0	13516	1604.616611850345	1604.6166118503
0	13537	1607.548181853441	1607.5481818534
0	13560	1617.394387931121	1617.3943879311
0	13566	1617.420478367405	1617.4204783674
0	13579	1619.062008098466	1619.0620080985
0	13640	1628.736307465938	1628.7363074659
0	13666	1629.561327768083	1629.5613277681
0	13677	1629.653362319528	1629.6533623195
0	13683	1629.684204052909	1629.6842040529
0	13744	1635.626596341618	1635.6265963416
0	13780	1641.652949798942	1641.6529497989
0	13796	1642.296314027216	1642.2963140272
0	13812	1642.720979588792	1642.7209795888
0	13823	1644.851733624232	1644.8517336242
0	13869	1656.26629093955	1656.2662909395
0	13902	1662.344321542742	1662.3443215427
0	13946	1666.021468267668	1666.0214682677
0	13952	1666.156722159321	1666.1567221593
0	13963	1666.981551856613	1666.9815518566
0	13973	1667.037607082745	1667.0376070827
0	14015	1676.412245301653	1676.4122453017
0	14022	1676.539255059961	1676.53925506
0	14039	1679.946457037058	1679.9464570371
0	14056	1681.208719767282	1681.2087197673
1	13510	1604.600102268211	1298.4871822718
1	13516	1604.616611850345	1295.4957584496
1	13537	1607.548181853441	1248.1722440155
1	13560	1617.394387931121	1281.9543016382
1	13566	1617.420478367405	1280.919045019
1	13579	1619.062008098466	1265.3580271915
1	13640	1628.736307465938	1320.7462439835
1	13666	1629.561327768083	1279.4955806667
1	13677	1629.653362319528	1286.3347202994
1	13683	1629.684204052909	1409.9615430007
1	13744	1635.626596341618	1307.2254995973
1	13780	1641.652949798942	1297.8000260895
1	13796	1642.296314027216	1336.6117765768
1	13812	1642.720979588792	1270.9209945051
1	13823	1644.851733624232	1307.8447212564
1	13869	1656.26629093955	1313.2416811151
1	13902	1662.344321542742	1367.6620298432
1	13946	1666.021468267668	1351.8204548934
1	13952	1666.156722159321	1383.7161765796
1	13963	1666.981551856613	1372.0274854712
1	13973	1667.037607082745	1401.4502590558
1	14015	1676.412245301653	1372.872497568
1	14022	1676.539255059961	1290.6138521127
1	14039	1679.946457037058	1277.9589492557
1	14056	1681.208719767282	1336.6400256462
2	13510	1604.600102268211	0
2	13516	1604.616611850345	0
2	13537	1607.548181853441	0
2	13560	1617.394387931121	0
2	13566	1617.420478367405	0
2	13579	1619.062008098466	0
2	13640	1628.736307465938	0
2	13666	1629.561327768083	0
2	13677	1629.653362319528	0
2	13683	1629.684204052909	0
2	13744	1635.626596341618	0
2	13780	1641.652949798942	0
2	13796	1642.296314027216	0
2	13812	1642.720979588792	0
2	13823	1644.851733624232	0
2	13869	1656.26629093955	0
2	13902	1662.344321542742	0
2	13946	1666.021468267668	0
2	13952	1666.156722159321	0
2	13963	1666.981551856613	0
2	13973	1667.037607082745	0
2	14015	1676.412245301653	0
2	14022	1676.539255059961	0
2	14039	1679.946457037058	0
2	14056	1681.208719767282	0
3	13510	1604.600102268211	133.35609646646
3	13516	1604.616611850345	139.92919071814
3	13537	1607.548181853441	108.60750547169
3	13560	1617.394387931121	142.078372718
3	13566	1617.420478367405	102.26846625355
3	13579	1619.062008098466	128.79751717596
3	13640	1628.736307465938	138.5147242673
3	13666	1629.561327768083	150.78721084018
3	13677	1629.653362319528	127.27458445932
3	13683	1629.684204052909	56.838630722752
3	13744	1635.626596341618	146.73690169996
3	13780	1641.652949798942	149.212789573
3	13796	1642.296314027216	132.98629889877
3	13812	1642.720979588792	120.13234519892
3	13823	1644.851733624232	174.73434677452
3	13869	1656.26629093955	106.88992439724
3	13902	1662.344321542742	109.82562052752
3	13946	1666.021468267668	80.651506829874
3	13952	1666.156722159321	144.44486932294
3	13963	1666.981551856613	159.05992673414
3	13973	1667.037607082745	131.21338694288
3	14015	1676.412245301653	88.887744707589
3	14022	1676.539255059961	156.59597618351
3	14039	1679.946457037058	173.51930362559
3	14056	1681.208719767282	111.46631621623
4	13510	1604.600102268211	47
4	13516	1604.616611850345	43
4	13537	1607.548181853441	52
4	13560	1617.394387931121	46
4	13566	1617.420478367405	51
4	13579	1619.062008098466	42
4	13640	1628.736307465938	58
4	13666	1629.561327768083	58
4	13677	1629.653362319528	55
4	13683	1629.684204052909	29
4	13744	1635.626596341618	74
4	13780	1641.652949798942	62
4	13796	1642.296314027216	45
4	13812	1642.720979588792	43
4	13823	1644.851733624232	52
4	13869	1656.26629093955	22
4	13902	1662.344321542742	52
4	13946	1666.021468267668	40
4	13952	1666.156722159321	70
4	13963	1666.981551856613	54
4	13973	1667.037607082745	69
4	14015	1676.412245301653	48
4	14022	1676.539255059961	59
4	14039	1679.946457037058	78
4	14056	1681.208719767282	52
5	13510	1604.600102268211	0
5	13516	1604.616611850345	0
5	13537	1607.548181853441	0
5	13560	1617.394387931121	0
5	13566	1617.420478367405	0
5	13579	1619.062008098466	0
5	13640	1628.736307465938	0
5	13666	1629.561327768083	0
5	13677	1629.653362319528	0
5	13683	1629.684204052909	0
5	13744	1635.626596341618	0
5	13780	1641.652949798942	0
5	13796	1642.296314027216	0
5	13812	1642.720979588792	0
5	13823	1644.851733624232	0
5	13869	1656.26629093955	0
5	13902	1662.344321542742	0
5	13946	1666.021468267668	0
5	13952	1666.156722159321	0
5	13963	1666.981551856613	0
5	13973	1667.037607082745	0
5	14015	1676.412245301653	0
5	14022	1676.539255059961	0
5	14039	1679.946457037058	0
5	14056	1681.208719767282	0
6	13510	1604.600102268211	0
6	13516	1604.616611850345	0
6	13537	1607.548181853441	0
6	13560	1617.394387931121	0
6	13566	1617.420478367405	0
6	13579	1619.062008098466	0
6	13640	1628.736307465938	0
6	13666	1629.561327768083	0
6	13677	1629.653362319528	0
6	13683	1629.684204052909	0
6	13744	1635.626596341618	0
6	13780	1641.652949798942	0
6	13796	1642.296314027216	0
6	13812	1642.720979588792	0
6	13823	1644.851733624232	0
6	13869	1656.26629093955	0
6	13902	1662.344321542742	0
6	13946	1666.021468267668	0
6	13952	1666.156722159321	0
6	13963	1666.981551856613	0
6	13973	1667.037607082745	0
6	14015	1676.412245301653	0
6	14022	1676.539255059961	0
6	14039	1679.946457037058	0
6	14056	1681.208719767282	0
8	0	0	0
8	115	4.017309609338	1
8	140	4.795549106817	2
8	150	5.436453655414	3
8	157	5.769818524222	4
8	159	6.080432857225	5
8	163	6.929122052152	6
8	165	6.95390624953	7
8	173	7.24717235534	6
8	182	7.502780936989	7
8	192	7.732642796926	8
8	199	8.119192825909	9
8	209	8.61629677371	8
8	226	9.700725330154	9
8	238	11.205651407947	10
8	240	11.370308942027	11
8	242	11.429015908759	12
8	254	12.854185339111	13
8	261	15.003310049591	14
8	263	15.137586902086	15
8	270	16.283100811128	16
8	275	17.183524322013	15
8	287	17.56198881106	14
8	317	20.310434996737	15
8	322	20.790291397741	14
8	339	22.130159880259	15
8	361	24.999173664616	16
8	363	27.656601543757	17
8	400	38.16236403721	18
8	402	38.268961414909	19
8	462	44.17324112011	18
8	472	45.001960614723	17
8	482	45.295939708364	16
8	509	46.459304274521	15
8	518	46.574981415772	16
8	521	46.69913952342	15
8	525	46.792483444141	16
8	533	47.539001588514	17
8	553	53.852190007714	16
8	557	53.951947029617	17
8	567	54.213943102827	18
8	582	56.262535104698	17
8	589	56.629694604413	18
8	601	57.881682680136	19
8	616	58.14489996919	18
8	626	58.841364155487	17
8	653	60.539104720303	18
8	655	62.997546194299	19
8	665	64.879162382336	18
8	705	66.40993707871	17
8	734	67.865291399622	16
8	752	68.548161029808	17
8	754	70.513688891884	18
8	759	71.742651817519	17
8	769	71.924981955291	16
8	781	73.690307815534	17
8	796	74.264246028743	16
8	803	75.850806044121	17
8	818	77.557769521037	16
8	833	78.594425677378	15
8	838	78.760686857989	14
8	858	79.801368684422	13
8	865	79.885861783899	14
8	867	80.14951102654	15
8	884	82.271128741163	16
8	886	82.832968567562	17
8	918	85.582986946074	18
8	923	86.696100304497	17
8	928	86.876565668413	16
8	945	87.668383590099	17
8	952	89.038206545514	18
8	967	93.433682985337	17
8	986	95.531405870165	18
8	991	97.268330098085	19
8	1001	97.706372075715	18
8	1048	101.791326030894	17
8	1060	102.089304130073	18
8	1064	102.258160371595	19
8	1067	102.289844379879	18
8	1095	103.302372829211	17
8	1102	103.844356294375	18
8	1139	109.262285525217	17
8	1154	109.94472150831	18
8	1161	113.492463842763	19
8	1243	128.165406476599	20
8	1253	129.199904511817	19
8	1303	135.45506212458	18
8	1333	136.979411431556	17
8	1338	137.140650271548	16
8	1389	140.411898850321	17
8	1409	141.308801826062	16
8	1422	141.786559310107	15
8	1432	142.640676203662	16
8	1444	146.26023471235	17
8	1456	150.223530639185	18
8	1486	151.645552680576	17
8	1491	152.042917806308	16
8	1526	155.797723867347	15
8	1535	156.652595356137	16
8	1555	161.338464683014	17
8	1557	162.486663648118	18
8	1567	170.557483651372	17
8	1604	174.027321299515	18
8	1631	175.096709411511	17
8	1636	175.371635117359	16
8	1656	176.245758318021	17
8	1678	182.072861314825	18
8	1680	182.674580476119	19
8	1690	184.718229112146	18
8	1715	186.965787211058	17
8	1745	189.654339368083	16
8	1762	190.680366217635	17
8	1769	191.995635386233	18
8	1776	193.980028437324	19
8	1781	194.353000568288	18
8	1793	194.970611198036	19
8	1808	200.641749215766	18
8	1815	204.060522819435	19
8	1827	209.896400321645	20
8	1839	213.723263569962	19
8	1854	220.237534271553	20
8	1909	233.009862952552	19
8	1954	237.504006283861	18
8	1979	238.890962496337	17
8	1986	240.860427087247	18
8	1988	242.099122291641	19
8	1990	242.319654692721	20
8	2005	249.619666389323	19
8	2024	251.072647659918	20
8	2037	251.865998930124	19
8	2042	251.866638654531	18
8	2057	254.272337369637	17
8	2084	256.639918926259	18
8	2097	257.506587862854	19
8	2103	257.587723917554	18
8	2143	265.070805779206	19
8	2158	268.669312336624	18
8	2163	268.700215588894	17
8	2170	269.80274508216	18
8	2180	270.54463959789	17
8	2197	271.099136921825	16
8	2202	271.171580520836	15
8	2217	272.438444295768	16
8	2219	275.601123671868	17
8	2221	276.262288502629	18
8	2241	277.587175082753	17
8	2246	277.827619516963	16
8	2250	277.841579937133	17
8	2305	289.282372644144	18
8	2314	291.445865897739	17
8	2330	291.636972773781	16
8	2335	291.643481109271	15
8	2357	294.30681374942	16
8	2372	295.834962773623	15
8	2377	295.986157774808	14
8	2382	296.069613535709	13
8	2407	297.098351137247	12
8	2424	297.38500915856	13
8	2429	298.324880950703	12
8	2436	298.75416964231	13
8	2443	300.215053652242	14
8	2453	300.439821366093	13
8	2468	300.763542912227	12
8	2473	300.813012672253	11
8	2503	303.795014191115	10
8	2518	304.273475939787	9
8	2553	308.38427151709	8
8	2565	308.746212296276	9
8	2570	308.864995813046	8
8	2592	309.614640106913	7
8	2617	310.765633286105	8
8	2621	311.102291989207	9
8	2639	311.771478894216	8
8	2651	312.173637525156	9
8	2656	312.341112094169	8
8	2663	312.814007724928	9
8	2665	313.312749338788	10
8	2667	313.73437679526	11
8	2669	313.746236011201	12
8	2671	313.749303597366	13
8	2693	317.060944603894	14
8	2700	318.599689950547	15
8	2702	319.290905778199	16
8	2729	325.195379953903	17
8	2751	327.222930582901	16
8	2786	330.911277005108	17
8	2811	332.569532419137	16
8	2825	333.020535550258	17
8	2863	335.020602259538	16
8	2870	335.887810917217	17
8	2920	342.592801116559	16
8	2925	342.664244867779	15
8	2942	344.6229725722	16
8	2964	345.666709295643	17
8	2966	345.965962093093	18
8	2983	354.775974428306	19
8	3047	359.602001283588	20
8	3060	360.146506872526	19
8	3070	360.515572905065	18
8	3075	360.518557112506	17
8	3104	361.817298556671	18
8	3107	361.977800910292	17
8	3119	363.233587079028	18
8	3146	365.923606785844	19
8	3186	367.674677583117	18
8	3190	367.680893908515	19
8	3208	368.322533602855	18
8	3218	368.517235137633	17
8	3230	368.905628983049	16
8	3265	371.308233997113	17
8	3285	373.319990069281	16
8	3297	374.519434893893	17
8	3301	377.431859176545	18
8	3313	381.713291567205	19
8	3371	388.824655533261	18
8	3386	389.563593461057	17
8	3391	389.590874035858	16
8	3421	392.306932534781	15
8	3433	393.074629389335	16
8	3435	393.27085641989	17
8	3455	396.067682934215	16
8	3466	396.365350875602	17
8	3502	397.625495935478	16
8	3509	397.884277190135	17
8	3516	398.278537194562	18
8	3526	400.188848783508	17
8	3551	403.474146221672	16
8	3561	403.832015167512	15
8	3576	404.841618680697	14
8	3581	404.977361353905	13
8	3598	405.445778376752	14
8	3600	406.793199515282	15
8	3602	409.952417691574	16
8	3604	413.417479377744	17
8	3606	413.623865704985	18
8	3611	413.860702697771	17
8	3616	413.862361251578	16
8	3628	416.402244535876	17
8	3630	417.245513674732	18
8	3635	417.762509417795	17
8	3640	417.81353627511	16
8	3657	418.581485453711	17
8	3664	421.331067214933	18
8	3684	424.127850399504	17
8	3691	424.80259206341	18
8	3706	426.728229318537	17
8	3713	427.023201096031	18
8	3735	431.23439855964	17
8	3753	431.62779669641	16
8	3773	432.462148436444	15
8	3807	435.784404732736	16
8	3822	436.282098400067	15
8	3871	438.28754096308	16
8	3909	439.708690246574	15
8	3919	440.098829747874	14
8	3934	441.488416017688	15
8	3964	443.427445959536	14
8	3969	443.791945615522	13
8	3984	444.026428321081	12
8	3989	444.047191628244	11
8	3998	444.293571850652	12
8	4001	444.507604906826	11
8	4011	444.829307477796	10
8	4018	445.064786265617	11
8	4020	445.584442761668	12
8	4022	445.894009415712	13
8	4024	446.921377153356	14
8	4026	447.056963249997	15
8	4028	447.3440607772	16
8	4030	450.126394530642	17
8	4045	453.395983001458	16
8	4050	453.440557638454	15
8	4057	454.351314360173	16
8	4059	454.75185560457	17
8	4066	455.086758783121	16
8	4136	459.675961978818	17
8	4143	463.943580202824	18
8	4147	464.171096463048	19
8	4150	464.176710874341	18
8	4177	468.475335939883	19
8	4187	469.942511871702	18
8	4214	474.57280785622	19
8	4229	478.136593677923	18
8	4236	478.370754221002	19
8	4238	484.07150135068	20
8	4258	486.700897731633	19
8	4268	487.016047714706	18
8	4290	496.654421720421	19
8	4295	497.263613707647	18
8	4310	497.999496634068	17
8	4320	498.289215754596	16
8	4355	500.884141516002	15
8	4375	501.873102088132	14
8	4427	505.914125704386	15
8	4432	507.493204187172	14
8	4439	508.051302294854	15
8	4441	509.171576621429	16
8	4448	510.501828178761	17
8	4450	511.259947999732	18
8	4460	513.65492684885	17
8	4467	513.851198130393	16
8	4471	514.050140089426	17
8	4474	514.073861235279	16
8	4479	514.098624162251	15
8	4488	514.321339098124	16
8	4504	515.199910470327	15
8	4531	516.733138043309	16
8	4536	517.039487890902	15
8	4563	518.255740855953	16
8	4565	518.615322301806	17
8	4572	520.484394582213	18
8	4577	520.925417129598	17
8	4581	521.150797285243	18
8	4596	521.688646214301	19
8	4600	521.863619290626	20
8	4628	525.672239317589	19
8	4643	526.403881292595	18
8	4648	526.538491213674	17
8	4663	527.887310974696	16
8	4673	528.287559673056	15
8	4685	530.09104511911	16
8	4724	532.77758959722	17
8	4739	538.222756788068	18
8	4754	540.517068988656	17
8	4771	541.263495885281	18
8	4791	547.401338201361	17
8	4813	548.304319735784	16
8	4826	548.451520419734	15
8	4838	548.7300453183	16
8	4848	549.680681279853	15
8	4855	550.102439980717	16
8	4865	551.003368078546	15
8	4869	551.077893846084	16
8	4874	551.185627544418	15
8	4896	552.154149557537	16
8	4906	552.326588039661	17
8	4953	557.698683842254	18
8	5038	562.918159436836	17
8	5043	563.008764271364	16
8	5050	563.940788961867	17
8	5055	564.083462267372	16
8	5071	564.460622054101	17
8	5082	564.77774623922	16
8	5087	564.973280130104	15
8	5102	565.30349782768	14
8	5107	565.578450946906	13
8	5119	567.343189894699	14
8	5151	573.628103128531	15
8	5161	574.875753847122	14
8	5168	575.42081181653	15
8	5183	576.169548275731	14
8	5188	576.240328783131	13
8	5195	576.855428799221	14
8	5207	578.841480759605	15
8	5214	579.984122190058	16
8	5216	580.227676429247	17
8	5226	581.445600924715	16
8	5236	582.059682296404	15
8	5258	586.570835195986	16
8	5260	587.174196983512	17
8	5262	588.529354882289	18
8	5277	589.408433497285	17
8	5284	589.686059555872	16
8	5294	590.349712730456	17
8	5296	591.164190206414	18
8	5301	601.10497661969	17
8	5330	606.051570838716	18
8	5332	606.275507485004	19
8	5347	614.950819851939	20
8	5362	619.906663719701	19
8	5382	620.456747421861	18
8	5407	621.853819825188	17
8	5412	622.02851110206	16
8	5424	623.202288830166	17
8	5426	624.111735942873	18
8	5428	625.147650246933	19
8	5480	633.292380404615	20
8	5515	641.964505247654	19
8	5520	641.988485138876	18
8	5532	642.328984227518	17
8	5555	643.862159867929	16
8	5567	644.266872971013	17
8	5586	646.37256904349	18
8	5589	646.388345714312	17
8	5594	646.539982065845	16
8	5599	646.601135111612	15
8	5608	647.094288504911	16
8	5626	649.218138234019	15
8	5636	649.433436228202	14
8	5646	649.677925570611	13
8	5653	651.094870783875	14
8	5655	654.257127055205	15
8	5657	654.438474552917	16
8	5679	659.932503285105	15
8	5689	660.093657863565	14
8	5704	661.96101966047	15
8	5721	663.869767270622	14
8	5726	664.097091607856	13
8	5743	664.730066675839	14
8	5791	666.441729223942	13
8	5796	666.443246861596	12
8	5808	667.27345929061	13
8	5810	667.4360047849	14
8	5819	668.637598747952	15
8	5844	674.2529215802	16
8	5854	674.515742910411	15
8	5876	677.475899787596	16
8	5878	677.540481430156	17
8	5888	681.001457980164	16
8	5920	687.696703173779	17
8	5945	689.727300990251	16
8	5967	690.300783757628	17
8	5969	691.34020805238	18
8	5976	691.438029371736	19
8	6001	693.58609629922	18
8	6013	698.441143740901	19
8	6025	700.823683447807	20
8	6045	711.117868631744	19
8	6085	718.752279753492	18
8	6090	718.755544313725	17
8	6095	718.857964842522	16
8	6117	719.771029267126	17
8	6139	722.389648714903	18
8	6141	722.498925625043	19
8	6161	726.225233728099	18
8	6166	726.228090295356	17
8	6198	734.762740079746	18
8	6223	735.689624185216	17
8	6277	740.617746391808	16
8	6310	742.038362933286	15
8	6318	742.125551808191	14
8	6328	742.245538833461	13
8	6333	742.266055935171	12
8	6338	742.323177685576	11
8	6360	742.977393449943	12
8	6371	743.223285400049	13
8	6373	743.305244266728	14
8	6386	743.68523626839	13
8	6390	743.772107877826	14
8	6418	746.020106434742	15
8	6425	746.620050286104	16
8	6447	749.615549701167	17
8	6449	749.70754283213	18
8	6454	750.611101462365	17
8	6461	752.61652415872	18
8	6523	761.493504656467	19
8	6568	769.653496367686	18
8	6578	769.975993306968	17
8	6585	770.023324871597	18
8	6599	770.762313378206	19
8	6634	782.391974601998	20
8	6639	783.757333574093	19
8	6659	786.067565315195	18
8	6669	786.185211989704	17
8	6686	788.517477259227	18
8	6711	790.345500257407	17
8	6716	790.394231900166	16
8	6728	792.483644385305	17
8	6738	796.52894137933	16
8	6750	797.319684070519	17
8	6807	803.550350458815	18
8	6822	808.828481778668	17
8	6841	810.935210843002	18
8	6851	811.511287603197	19
8	6861	816.986189744826	18
8	6866	817.096227266333	17
8	6871	817.135304230739	16
8	6906	819.686395785855	15
8	6923	821.250266279333	16
8	6958	823.757606484976	15
8	6980	825.096818559315	16
8	6982	827.730333182096	17
8	6984	827.931354301359	18
8	7001	832.152630715436	19
8	7003	834.096003812818	20
8	7008	837.714683219906	19
8	7013	837.748777859045	18
8	7028	839.064907022649	17
8	7038	839.758021581264	16
8	7043	839.802640586904	15
8	7065	843.547044280192	16
8	7070	844.395351291765	15
8	7087	845.748109271107	16
8	7102	848.159218736074	15
8	7109	848.72900339932	16
8	7114	848.906177824197	15
8	7156	852.802635667623	16
8	7158	858.424290311856	17
8	7160	859.212658740112	18
8	7165	861.788997698765	17
8	7195	864.507333563276	16
8	7222	866.006133970824	17
8	7224	866.499823329216	18
8	7256	874.965113614558	19
8	7258	875.074317810387	20
8	7278	882.01829842592	19
8	7288	882.557123638547	18
8	7293	882.592990538733	17
8	7300	882.947748148349	16
8	7310	883.259985557761	17
8	7315	885.065455462701	16
8	7320	885.459921029241	15
8	7324	885.612117728353	16
8	7329	887.327541539628	17
8	7341	888.745131499546	18
8	7363	892.641595052251	19
8	7370	894.397135175011	20
8	7385	904.059967535291	19
8	7400	905.60915783676	18
8	7409	906.159949735	19
8	7417	907.555938813742	18
8	7432	907.891715163954	17
8	7436	907.934956950202	18
8	7476	908.753650681478	17
8	7484	908.887960414141	16
8	7489	908.890978354796	15
8	7498	909.105972236509	16
8	7503	910.466036803175	17
8	7532	912.57228290196	18
8	7545	914.725619817487	17
8	7555	914.983438651545	16
8	7567	916.999967813956	17
8	7582	919.461038943115	16
8	7599	920.247090921412	15
8	7612	920.566035203956	14
8	7634	921.699162386976	13
8	7649	924.812361800012	14
8	7651	927.825147901549	15
8	7653	928.037023487218	16
8	7655	930.381403465512	17
8	7657	931.439763570419	18
8	7667	934.228447471571	17
8	7676	934.903787134744	18
8	7694	937.338312173291	17
8	7704	937.740305342894	16
8	7716	938.613872183535	17
8	7731	943.257855434101	16
8	7746	943.886664620032	15
8	7753	945.171208738548	16
8	7765	945.366011874693	15
8	7790	947.724203208217	16
8	7795	948.811560843781	15
8	7802	950.291488148049	16
8	7809	952.367821717126	17
8	7811	952.474369763731	18
8	7816	953.314072902155	17
8	7821	953.326302984982	16
8	7828	953.404064498148	17
8	7843	955.909163381461	16
8	7850	956.122734400052	15
8	7858	956.202901806181	14
8	7873	956.486424849733	13
8	7878	956.581671680843	12
8	7898	957.510389775861	11
8	7905	958.05178303831	12
8	7927	960.194727452015	13
8	7929	960.346987330963	14
8	7931	960.646647496963	15
8	7941	962.544885091742	14
8	7958	965.911101869531	15
8	7970	966.324806988098	16
8	7982	967.272244460208	17
8	7989	968.297596876004	18
8	7998	969.491634813559	19
8	8001	969.77202987845	18
8	8018	970.485347814358	17
8	8026	970.57086879617	16
8	8031	970.910389751568	15
8	8036	970.969325177225	14
8	8051	971.678827003984	13
8	8055	971.683416920924	14
8	8065	972.219983638742	15
8	8070	972.857737596195	14
8	8094	974.567411341491	15
8	8096	974.888879580025	16
8	8121	975.812033633388	15
8	8138	976.079938261505	16
8	8143	976.339764040223	17
8	8148	976.89787685237	16
8	8158	977.306043031898	15
8	8168	978.506439768408	14
8	8192	979.429747917909	15
8	8194	979.434321671701	16
8	8237	981.861397890214	15
8	8241	981.887064231611	16
8	8244	981.896271297073	15
8	8251	982.251994440361	14
8	8256	982.304738444703	13
8	8263	982.427948586499	12
8	8279	982.860061106536	11
8	8284	983.47941232552	10
8	8291	984.583664903277	11
8	8301	986.457069143745	10
8	8308	987.572292615393	11
8	8320	988.830917545487	10
8	8325	988.850845750521	9
8	8330	988.859868697119	8
8	8350	989.498926108071	7
8	8354	989.509425537296	8
8	8362	990.184427972329	9
8	8384	992.590201696634	10
8	8386	992.770054441402	11
8	8408	995.101594702085	12
8	8443	996.849108300213	11
8	8452	997.335932833647	12
8	8477	999.662649462813	11
8	8482	999.725216776511	10
8	8490	999.835834439262	9
8	8495	1000.010266903655	8
8	8510	1000.586609566744	7
8	8517	1001.765723794793	8
8	8519	1002.006062386634	9
8	8521	1002.441085361066	10
8	8523	1002.60643096909	11
8	8525	1003.544052405599	12
8	8527	1004.630323641173	13
8	8539	1006.591263072694	14
8	8551	1008.460598583476	15
8	8585	1012.344635679725	16
8	8600	1014.225815052235	17
8	8602	1016.470233868907	18
8	8637	1020.641876074929	17
8	8652	1022.13406074581	16
8	8664	1023.591650968412	17
8	8724	1026.501826155095	16
8	8736	1027.044272050555	17
8	8760	1027.306646835017	18
8	8763	1027.399255976393	17
8	8768	1027.607504469229	16
8	8775	1028.712512611585	17
8	8780	1031.138210020862	16
8	8790	1032.473119286941	15
8	8795	1032.525740439471	14
8	8802	1034.798828421399	15
8	8831	1037.853719106149	16
8	8839	1038.373878085508	15
8	8851	1039.556676131993	16
8	8856	1040.04365327803	15
8	8868	1041.814934575587	16
8	8878	1042.436365535642	15
8	8895	1042.910876873012	16
8	8912	1044.157592396899	17
8	8922	1044.713800820976	16
8	8937	1045.472064501571	15
8	8941	1045.5133592466	16
8	8943	1045.532041784338	17
8	8966	1050.469063073221	16
8	8983	1051.823578032818	17
8	8985	1051.879931103434	18
8	8990	1053.794635494807	17
8	8997	1056.332643130475	18
8	9006	1060.299404094131	19
8	9024	1061.586612819884	18
8	9041	1063.758797413196	19
8	9043	1063.867392724505	20
8	9063	1070.281832240167	19
8	9067	1070.293963956192	20
8	9135	1077.729376378191	19
8	9165	1081.518951189467	18
8	9175	1081.776386231351	17
8	9195	1083.298370488999	16
8	9205	1083.706761637392	15
8	9212	1085.274208867317	16
8	9214	1085.42727689816	17
8	9219	1085.725312095175	16
8	9234	1086.223578230826	15
8	9246	1086.982902300383	16
8	9281	1095.385211263643	15
8	9288	1097.940300998068	16
8	9300	1103.99584882722	17
8	9302	1106.195096108766	18
8	9304	1110.662452543581	19
8	9306	1112.036108471177	20
8	9346	1116.154147216266	19
8	9426	1124.11441009094	18
8	9448	1124.762337219562	19
8	9458	1125.741546291079	18
8	9478	1126.799748080412	17
8	9485	1127.169912027049	18
8	9500	1128.418919040754	17
8	9507	1132.07251993996	18
8	9512	1132.405862483348	17
8	9517	1132.759453662232	16
8	9546	1134.071875168779	17
8	9549	1134.123078724689	16
8	9553	1134.146723051363	17
8	9556	1134.36171781581	16
8	9575	1134.821699131978	15
8	9580	1135.036321309283	14
8	9598	1136.329620959168	15
8	9623	1138.021998585511	14
8	9648	1138.843904780894	13
8	9655	1140.101935863338	14
8	9657	1140.34404018525	15
8	9659	1140.347644873311	16
8	9664	1141.067829259002	15
8	9683	1144.384165912394	16
8	9685	1144.413839489637	17
8	9700	1145.400230516163	16
8	9705	1145.430373886328	15
8	9709	1145.457535221161	16
8	9740	1148.609348205662	15
8	9745	1148.615716564373	14
8	9757	1149.07630945692	15
8	9759	1149.830827506966	16
8	9761	1149.857050966372	17
8	9763	1150.206837935073	18
8	9778	1151.137154098065	17
8	9785	1153.862098404351	18
8	9790	1154.649602336031	17
8	9810	1155.452818931692	16
8	9830	1156.771027041549	15
8	9837	1157.487241834943	16
8	9839	1158.720496608702	17
8	9851	1159.543907905993	18
8	9886	1165.755275586347	17
8	9896	1167.522879477414	16
8	9901	1167.730926069351	15
8	9923	1169.675989177238	16
8	9940	1173.189883653628	17
8	9942	1173.202307805411	18
8	9944	1173.899512039542	19
8	9946	1174.1389068512	20
8	9951	1175.744919517925	19
8	9961	1180.546680087565	18
8	9970	1181.081313635	19
8	10008	1184.148200063704	18
8	10078	1195.99310879571	17
8	10090	1196.44322083029	18
8	10120	1199.937549899735	17
8	10142	1200.406730496193	18
8	10159	1203.59984373448	19
8	10184	1206.69315138044	18
8	10201	1207.568676505377	19
8	10206	1207.892858601665	18
8	10211	1208.086874988131	17
8	10235	1211.031669520095	18
8	10238	1211.115810592444	17
8	10250	1212.129636845287	18
8	10252	1214.356187843785	19
8	10267	1216.598242767603	18
8	10274	1217.949232856456	19
8	10289	1219.762645255791	18
8	10314	1224.782356916124	17
8	10331	1229.761646424129	18
8	10368	1238.609311373235	19
8	10385	1240.716380426558	20
8	10390	1241.511197202697	19
8	10409	1242.861091150112	20
8	10467	1251.94918955995	19
8	10482	1255.719773214286	18
8	10487	1255.985529972569	17
8	10502	1258.003821843795	16
8	10531	1260.654518613959	17