version 2
run Multitask30-20-20150106-11:37:59-1132
attr configname Multitask30
attr datetime 20150106-11:37:59
attr experiment Multitask30
attr inifile omnetpp.ini
attr iterationvars ""
attr iterationvars2 $repetition=20
attr measurement ""
attr network Multitask
attr processid 1132
attr repetition 20
attr replication #20
attr resultdir results
attr runnumber 20
attr seedset 20

vector 8  Multitask.allocateQ2  queueLength:vector  ETV
attr interpolationmode  sample-hold
attr title  "queue length, vector"
vector 11  Multitask.queue3  queueLength:vector  ETV
attr interpolationmode  sample-hold
attr title  "queue length, vector"
vector 13  Multitask.queue3  busy:vector  ETV
attr interpolationmode  sample-hold
attr title  "server busy state, vector"
vector 15  Multitask.queue4  queueLength:vector  ETV
attr interpolationmode  sample-hold
attr title  "queue length, vector"
vector 17  Multitask.queue4  busy:vector  ETV
attr interpolationmode  sample-hold
attr title  "server busy state, vector"
vector 19  Multitask.queue5  queueLength:vector  ETV
attr interpolationmode  sample-hold
attr title  "queue length, vector"
vector 21  Multitask.queue5  busy:vector  ETV
attr interpolationmode  sample-hold
attr title  "server busy state, vector"
vector 23  Multitask.queue6  queueLength:vector  ETV
attr interpolationmode  sample-hold
attr title  "queue length, vector"
vector 25  Multitask.queue6  busy:vector  ETV
attr interpolationmode  sample-hold
attr title  "server busy state, vector"
vector 27  Multitask.queue7  queueLength:vector  ETV
attr interpolationmode  sample-hold
attr title  "queue length, vector"
vector 29  Multitask.queue7  busy:vector  ETV
attr interpolationmode  sample-hold
attr title  "server busy state, vector"
vector 30  Multitask.resourceCPU  amount:vector  ETV
attr interpolationmode  sample-hold
attr title  "available resource, vector"
vector 12  Multitask.queue3  queueingTime:vector  ETV
attr interpolationmode  none
attr title  "queueing time at dequeue, vector"
attr unit  s
vector 28  Multitask.queue7  queueingTime:vector  ETV
attr interpolationmode  none
attr title  "queueing time at dequeue, vector"
attr unit  s
vector 16  Multitask.queue4  queueingTime:vector  ETV
attr interpolationmode  none
attr title  "queueing time at dequeue, vector"
attr unit  s
vector 20  Multitask.queue5  queueingTime:vector  ETV
attr interpolationmode  none
attr title  "queueing time at dequeue, vector"
attr unit  s
vector 24  Multitask.queue6  queueingTime:vector  ETV
attr interpolationmode  none
attr title  "queueing time at dequeue, vector"
attr unit  s
vector 9  Multitask.allocateQ2  queueingTime:vector  ETV
attr interpolationmode  none
attr title  "queueing time at dequeue, vector"
attr unit  s
vector 0  Multitask.sink  lifeTime:vector  ETV
attr interpolationmode  none
attr title  "lifetime of arrived jobs, vector"
attr unit  s
vector 1  Multitask.sink  totalQueueingTime:vector  ETV
attr interpolationmode  none
attr title  "the total time spent in queues by arrived jobs, vector"
attr unit  s
vector 4  Multitask.sink  queuesVisited:vector  ETV
attr interpolationmode  none
attr title  "the total number of queues visited by arrived jobs, vector"
vector 3  Multitask.sink  totalServiceTime:vector  ETV
attr interpolationmode  none
attr title  "the total time spent  by arrived jobs, vector"
attr unit  s
vector 2  Multitask.sink  totalDelayTime:vector  ETV
attr interpolationmode  none
attr title  "the total time spent in delay nodes by arrived jobs, vector"
attr unit  s
vector 5  Multitask.sink  delaysVisited:vector  ETV
attr interpolationmode  none
attr title  "the total number of delays visited by arrived jobs, vector"
vector 6  Multitask.sink  generation:vector  ETV
attr interpolationmode  none
attr title  "the generation of the arrived jobs, vector"
0	13633	1684.670884842739	1684.6708848427
0	13659	1685.965128984883	1685.9651289849
0	13672	1686.859924977649	1686.8599249776
0	13678	1686.972777571737	1686.9727775717
0	13684	1687.032987047572	1687.0329870476
0	13690	1687.034855454709	1687.0348554547
0	13696	1687.06275389899	1687.062753899
0	13731	1690.669131599289	1690.6691315993
0	13737	1690.72203925658	1690.7220392566
0	13763	1692.994583680682	1692.9945836807
0	13829	1703.321079479165	1703.3210794792
0	13835	1703.453951045965	1703.453951046
0	13846	1705.752028283531	1705.7520282835
0	13927	1711.696157107296	1711.6961571073
0	13938	1713.349807351399	1713.3498073514
0	13959	1714.559886766781	1714.5598867668
0	13975	1715.805402415139	1715.8054024151
0	13981	1715.933365559109	1715.9333655591
0	14009	1719.031299672752	1719.0312996728
0	14063	1727.241623731829	1727.2416237318
0	14078	1728.266743380821	1728.2667433808
0	14085	1728.608628797299	1728.6086287973
0	14112	1740.23398306683	1740.2339830668
0	14204	1757.072317750579	1757.0723177506
0	14231	1765.418188064391	1765.4181880644
1	13633	1684.670884842739	1414.7308236073
1	13659	1685.965128984883	1343.5880882274
1	13672	1686.859924977649	1352.7880289411
1	13678	1686.972777571737	1425.694649712
1	13684	1687.032987047572	1371.3574327941
1	13690	1687.034855454709	1372.4050229309
1	13696	1687.06275389899	1375.8615139053
1	13731	1690.669131599289	1360.4465366617
1	13737	1690.72203925658	1236.5282525359
1	13763	1692.994583680682	1366.5082999357
1	13829	1703.321079479165	1339.4176830119
1	13835	1703.453951045965	1308.8648747569
1	13846	1705.752028283531	1360.0242963493
1	13927	1711.696157107296	1366.9138712195
1	13938	1713.349807351399	1415.1935909016
1	13959	1714.559886766781	1384.184199824
1	13975	1715.805402415139	1478.4665350759
1	13981	1715.933365559109	1339.829511531
1	14009	1719.031299672752	1359.3261508646
1	14063	1727.241623731829	1438.6117165944
1	14078	1728.266743380821	1407.9360496034
1	14085	1728.608628797299	1387.0268960412
1	14112	1740.23398306683	1424.1778724729
1	14204	1757.072317750579	1352.4448733529
1	14231	1765.418188064391	1361.1314995454
2	13633	1684.670884842739	0
2	13659	1685.965128984883	0
2	13672	1686.859924977649	0
2	13678	1686.972777571737	0
2	13684	1687.032987047572	0
2	13690	1687.034855454709	0
2	13696	1687.06275389899	0
2	13731	1690.669131599289	0
2	13737	1690.72203925658	0
2	13763	1692.994583680682	0
2	13829	1703.321079479165	0
2	13835	1703.453951045965	0
2	13846	1705.752028283531	0
2	13927	1711.696157107296	0
2	13938	1713.349807351399	0
2	13959	1714.559886766781	0
2	13975	1715.805402415139	0
2	13981	1715.933365559109	0
2	14009	1719.031299672752	0
2	14063	1727.241623731829	0
2	14078	1728.266743380821	0
2	14085	1728.608628797299	0
2	14112	1740.23398306683	0
2	14204	1757.072317750579	0
2	14231	1765.418188064391	0
3	13633	1684.670884842739	141.99236017951
3	13659	1685.965128984883	143.73308068263
3	13672	1686.859924977649	93.633909320076
3	13678	1686.972777571737	140.67522075129
3	13684	1687.032987047572	166.05963289444
3	13690	1687.034855454709	127.08507060965
3	13696	1687.06275389899	102.91691319949
3	13731	1690.669131599289	129.48751336778
3	13737	1690.72203925658	142.15832753737
3	13763	1692.994583680682	123.85562644039
3	13829	1703.321079479165	123.68265039378
3	13835	1703.453951045965	153.16351654216
3	13846	1705.752028283531	118.75480920236
3	13927	1711.696157107296	129.02095447094
3	13938	1713.349807351399	151.91413010887
3	13959	1714.559886766781	130.4687411938
3	13975	1715.805402415139	90.621433183837
3	13981	1715.933365559109	170.4286095932
3	14009	1719.031299672752	104.96585555149
3	14063	1727.241623731829	161.65238940465
3	14078	1728.266743380821	150.15632007877
3	14085	1728.608628797299	91.14010795005
3	14112	1740.23398306683	101.96789199377
3	14204	1757.072317750579	133.1923706665
3	14231	1765.418188064391	150.2089016342
4	13633	1684.670884842739	60
4	13659	1685.965128984883	59
4	13672	1686.859924977649	42
4	13678	1686.972777571737	58
4	13684	1687.032987047572	70
4	13690	1687.034855454709	49
4	13696	1687.06275389899	37
4	13731	1690.669131599289	54
4	13737	1690.72203925658	57
4	13763	1692.994583680682	52
4	13829	1703.321079479165	52
4	13835	1703.453951045965	53
4	13846	1705.752028283531	47
4	13927	1711.696157107296	42
4	13938	1713.349807351399	72
4	13959	1714.559886766781	44
4	13975	1715.805402415139	37
4	13981	1715.933365559109	63
4	14009	1719.031299672752	33
4	14063	1727.241623731829	64
4	14078	1728.266743380821	64
4	14085	1728.608628797299	34
4	14112	1740.23398306683	48
4	14204	1757.072317750579	59
4	14231	1765.418188064391	55
5	13633	1684.670884842739	0
5	13659	1685.965128984883	0
5	13672	1686.859924977649	0
5	13678	1686.972777571737	0
5	13684	1687.032987047572	0
5	13690	1687.034855454709	0
5	13696	1687.06275389899	0
5	13731	1690.669131599289	0
5	13737	1690.72203925658	0
5	13763	1692.994583680682	0
5	13829	1703.321079479165	0
5	13835	1703.453951045965	0
5	13846	1705.752028283531	0
5	13927	1711.696157107296	0
5	13938	1713.349807351399	0
5	13959	1714.559886766781	0
5	13975	1715.805402415139	0
5	13981	1715.933365559109	0
5	14009	1719.031299672752	0
5	14063	1727.241623731829	0
5	14078	1728.266743380821	0
5	14085	1728.608628797299	0
5	14112	1740.23398306683	0
5	14204	1757.072317750579	0
5	14231	1765.418188064391	0
6	13633	1684.670884842739	0
6	13659	1685.965128984883	0
6	13672	1686.859924977649	0
6	13678	1686.972777571737	0
6	13684	1687.032987047572	0
6	13690	1687.034855454709	0
6	13696	1687.06275389899	0
6	13731	1690.669131599289	0
6	13737	1690.72203925658	0
6	13763	1692.994583680682	0
6	13829	1703.321079479165	0
6	13835	1703.453951045965	0
6	13846	1705.752028283531	0
6	13927	1711.696157107296	0
6	13938	1713.349807351399	0
6	13959	1714.559886766781	0
6	13975	1715.805402415139	0
6	13981	1715.933365559109	0
6	14009	1719.031299672752	0
6	14063	1727.241623731829	0
6	14078	1728.266743380821	0
6	14085	1728.608628797299	0
6	14112	1740.23398306683	0
6	14204	1757.072317750579	0
6	14231	1765.418188064391	0
8	0	0	0
8	240	10.728026377842	1
8	242	11.173843565838	2
8	249	11.768687156899	3
8	261	12.362720171186	4
8	268	12.679992060234	5
8	273	12.992640772352	4
8	280	13.29034773824	5
8	292	15.256089006295	6
8	294	15.278745748296	7
8	296	15.559310258068	8
8	298	16.919366219647	9
8	300	16.958365542401	10
8	305	17.934122757127	9
8	317	18.424685458581	10
8	326	21.840175185251	11
8	334	22.081525202244	10
8	340	22.212883617732	11
8	343	22.275003467995	10
8	350	22.506433493971	11
8	355	22.799797723162	12
8	357	22.969863412822	13
8	362	23.179633442901	12
8	384	24.433164178528	13
8	401	26.119968499428	14
8	408	26.237594556892	15
8	417	30.048063223146	16
8	427	30.423617142248	17
8	439	30.881167616269	18
8	449	31.185494521512	17
8	464	31.512528558034	16
8	484	34.379056985958	15
8	496	37.091547200231	16
8	498	37.265998212421	17
8	500	39.516942656081	18
8	502	42.863189894697	19
8	536	51.826137895716	20
8	574	62.166109435057	19
8	586	64.759479389113	20
8	616	69.88420772961	19
8	658	76.892593097653	20
8	673	81.533060999855	19
8	713	85.957402215901	18
8	758	98.608868260237	17
8	767	99.087818408114	18
8	775	99.867248243248	17
8	780	99.875124949784	16
8	794	100.524429592153	17
8	809	101.340079698947	18
8	814	102.893924277625	17
8	821	102.933435970075	16
8	838	104.831588777871	17
8	841	104.885802455999	16
8	848	105.43240813222	17
8	858	106.389395652186	16
8	865	106.63959807839	15
8	869	106.644408110318	16
8	887	116.841246699975	17
8	904	117.683217389558	18
8	921	124.997172056383	19
8	938	126.900536856706	20
8	953	128.105051918421	19
8	958	128.141491591186	18
8	990	133.657980985642	19
8	1022	147.95826548358	20
8	1047	149.731313240405	19
8	1062	154.325536735696	18
8	1079	157.688900156305	19
8	1081	157.903020428363	20
8	1091	158.655685433954	19
8	1116	162.114401330329	18
8	1128	164.177296270582	19
8	1158	170.090402973331	18
8	1170	170.438629042147	17
8	1180	170.532932201641	18
8	1207	174.435476327717	19
8	1244	182.646069422735	20
8	1264	183.846575575395	19
8	1286	188.85313692994	20
8	1291	189.631415347102	19
8	1316	192.448068854985	18
8	1323	193.093326875824	19
8	1365	197.607687146824	18
8	1383	198.676229953405	17
8	1395	199.842183209192	18
8	1400	200.208433205348	17
8	1405	200.255109625666	16
8	1435	204.69483100403	15
8	1440	204.774358116818	14
8	1445	204.822703140813	13
8	1449	204.933042591149	14
8	1452	204.937566974933	13
8	1457	205.167237924883	12
8	1461	205.245524948191	13
8	1466	206.122907466059	14
8	1468	206.194103511333	15
8	1470	206.674862647498	16
8	1474	207.216663482548	17
8	1492	208.153523431349	16
8	1534	211.2288874357	17
8	1536	211.304982152435	18
8	1560	217.008965305328	19
8	1575	218.453506737438	20
8	1660	227.317654400471	19
8	1670	227.555425080188	18
8	1707	229.265754648372	17
8	1727	235.957898800334	18
8	1734	236.928600746598	17
8	1759	239.568212457078	16
8	1777	240.462739834017	15
8	1786	240.778282183605	16
8	1788	240.819913684055	17
8	1793	241.227222566379	18
8	1808	242.610036990477	17
8	1835	245.605989406543	18
8	1847	247.296190952962	19
8	1879	250.660539449931	18
8	1932	254.045196374641	17
8	1944	255.092553086683	18
8	1949	255.600951325583	17
8	1959	255.687848053385	16
8	1981	256.954480467596	17
8	2010	260.658625180703	18
8	2030	266.398951707626	19
8	2035	266.6937028774	18
8	2055	267.24894865283	17
8	2065	267.770095475977	16
8	2077	267.924471567747	17
8	2082	268.499919844357	16
8	2087	268.713008489946	15
8	2094	268.93865787492	16
8	2101	269.210307771747	17
8	2106	269.290269622986	16
8	2113	270.098071457124	17
8	2120	270.80516163336	18
8	2125	271.332257976477	17
8	2132	271.502804656477	18
8	2137	275.669378266095	17
8	2177	279.929602208851	16
8	2214	281.365942772319	17
8	2241	283.282603783681	18
8	2250	284.630303063025	19
8	2273	290.753059197669	18
8	2278	290.755008309226	17
8	2305	292.217489151895	18
8	2312	294.8921195389	19
8	2314	297.881620900647	20
8	2319	307.321820078489	19
8	2396	311.117864624846	18
8	2400	311.128335127146	19
8	2421	312.382171533003	18
8	2440	313.713419024167	19
8	2463	322.975661147044	18
8	2495	330.106651129668	19
8	2517	345.986845504046	20
8	2522	346.742914333092	19
8	2527	346.820297065875	18
8	2534	347.047418082659	19
8	2539	347.257116482693	18
8	2544	347.293623366275	17
8	2551	347.456153288818	18
8	2556	349.41074358752	17
8	2563	350.507994700317	18
8	2568	354.347517457014	17
8	2575	354.777767520544	18
8	2587	357.130048179996	19
8	2602	360.906176532604	18
8	2611	361.148674311821	17
8	2649	364.680691785168	18
8	2669	370.616237739573	17
8	2689	372.387178174121	16
8	2693	372.445513328466	17
8	2711	373.874973244996	16
8	2731	374.477241509499	15
8	2758	377.22233954556	16
8	2760	378.425012854272	17
8	2765	379.073097795125	16
8	2769	379.161336020511	17
8	2802	380.592133411081	16
8	2814	382.051333596886	17
8	2819	382.739098375535	16
8	2838	383.468604507928	17
8	2873	387.117369912346	16
8	2901	388.268413024358	15
8	2918	390.943037322273	16
8	2923	391.128358346956	15
8	2935	392.229117739348	16
8	2942	394.297193211804	17
8	2944	398.619671140488	18
8	2968	402.016314718379	19
8	2975	402.187112432275	18
8	2988	402.764315090804	19
8	3103	417.92909779072	18
8	3110	419.038059483058	19
8	3127	424.943164556522	20
8	3154	430.602545569493	19
8	3164	431.625263405658	20
8	3171	434.645083934821	19
8	3191	435.022104333627	18
8	3214	436.112765117723	17
8	3254	438.740651834836	16
8	3266	440.736489714545	17
8	3276	441.416072115845	16
8	3283	442.113033298046	17
8	3290	445.576061596499	18
8	3315	448.233513216921	17
8	3320	448.23830044263	16
8	3325	448.33109563556	15
8	3330	448.403809307121	14
8	3340	448.845713209542	13
8	3347	449.262512033643	14
8	3349	450.913742534927	15
8	3361	453.999259720851	16
8	3373	454.801022225814	17
8	3388	456.079517313826	16
8	3397	456.279043461234	17
8	3402	456.323978230866	18
8	3414	456.719996709313	19
8	3424	456.778047420742	18
8	3441	457.281470181139	19
8	3443	457.398290762013	20
8	3453	461.051950265597	19
8	3460	461.454998951508	18
8	3470	461.568555087773	17
8	3478	461.685955630185	16
8	3483	461.709106697952	15
8	3490	462.814836081316	16
8	3500	466.509323605189	15
8	3505	466.590318196643	14
8	3512	466.96327746699	15
8	3517	467.174270779219	14
8	3527	467.626335175537	13
8	3548	468.790682608729	14
8	3554	468.815393342333	13
8	3581	471.373123060532	14
8	3585	471.513969750977	15
8	3590	474.24655876609	16
8	3615	476.465739663453	15
8	3622	477.408766030347	16
8	3627	478.368030661145	15
8	3644	480.297821212759	16
8	3646	480.394069573722	17
8	3661	481.088597979071	16
8	3682	483.288304921063	17
8	3688	483.338510212127	16
8	3695	483.523956975588	17
8	3700	483.751705416309	16
8	3705	483.789140566429	15
8	3742	487.097075701247	16
8	3749	488.552122147038	17
8	3754	490.817142967165	16
8	3769	491.492890444431	15
8	3799	492.078834655479	14
8	3816	492.753008773556	15
8	3836	493.604483705966	14
8	3851	494.060352557728	13
8	3856	494.12378121126	12
8	3871	494.76336707916	11
8	3888	497.573534684548	12
8	3900	498.795225392014	13
8	3907	501.444794135578	14
8	3909	502.512114042755	15
8	3924	506.492160476035	14
8	3931	507.469774289323	15
8	3933	510.553506640655	16
8	3935	510.857352214929	17
8	3937	510.997611496565	18
8	3942	511.409240586439	17
8	3946	511.751631741249	18
8	3954	511.965287242501	17
8	3961	512.324584071089	18
8	3998	515.709359443257	19
8	4008	516.431030699172	18
8	4013	516.497246745563	17
8	4028	516.949549311569	16
8	4048	517.404137609966	15
8	4077	519.351448410473	16
8	4085	520.111771290782	15
8	4097	521.871562230219	16
8	4104	525.614216750062	15
8	4109	525.66126121327	14
8	4169	530.470595223384	15
8	4184	531.215277461975	14
8	4196	531.78113938167	15
8	4203	533.351350048735	16
8	4205	534.073064679717	17
8	4240	536.486708501438	16
8	4252	537.049164349817	17
8	4254	537.068743478848	18
8	4268	539.609603472849	19
8	4271	539.645691588431	18
8	4288	540.223322466767	19
8	4363	544.526189190495	18
8	4405	551.133082571741	19
8	4407	551.606266721565	20
8	4417	555.062368651986	19
8	4427	555.448106318412	18
8	4432	555.49515188506	17
8	4467	560.034750455442	16
8	4484	563.77302195634	15
8	4494	564.182253522079	16
8	4499	565.028713002318	15
8	4506	565.158024799244	16
8	4523	565.918568405295	17
8	4528	566.660732837129	16
8	4535	567.448543063546	17
8	4565	570.15244380218	16
8	4570	570.251302991634	15
8	4592	571.004328658974	16
8	4599	571.62073677907	17
8	4601	573.04857910357	18
8	4603	573.202984708457	19
8	4618	578.525325953567	18
8	4628	580.310395792283	17
8	4663	586.375620440994	16
8	4673	586.692362597701	15
8	4685	588.955550835583	16
8	4702	590.924218170095	17
8	4704	590.956358883263	18
8	4706	591.679017100683	19
8	4756	609.150629298627	18
8	4776	610.381117886121	17
8	4796	616.948995868864	16
8	4806	617.396636192849	15
8	4818	620.153564811919	16
8	4828	622.050516589506	15
8	4832	622.162499581024	16
8	4835	622.229981513387	15
8	4845	622.91404505023	14
8	4859	623.626589771259	15
8	4866	624.057559275772	14
8	4876	624.291869922309	15
8	4878	624.449809448157	16
8	4903	626.337064822065	17
8	4905	626.51618190534	18
8	4915	627.060378244156	17
8	4925	627.858782253631	16
8	4932	628.290776146687	17
8	4934	628.979032845296	18
8	4943	631.322648489504	19
8	4946	631.417018162477	18
8	4951	631.453321562591	17
8	5011	637.629712569778	16
8	5031	638.262078275351	15
8	5053	641.22649656124	16
8	5075	642.553283301143	17
8	5082	643.432614386155	18
8	5094	644.727966865793	19
8	5101	646.456128053409	20
8	5116	647.082211847173	19
8	5126	647.35398411903	18
8	5136	647.759723402594	17
8	5140	647.888822673338	18
8	5168	650.218272956701	17
8	5188	651.014447893959	16
8	5215	652.751688137753	17
8	5220	653.039534004727	16
8	5272	661.249827025085	17
8	5274	661.266139052553	18
8	5279	662.674303817945	17
8	5306	665.156528248585	18
8	5351	666.589682549729	17
8	5383	671.316477792037	18
8	5423	677.434058056948	17
8	5448	679.316961491498	16
8	5453	679.440515525626	15
8	5495	681.483622591055	14
8	5515	681.852585952563	13
8	5548	682.475386516639	12
8	5560	683.431125128699	13
8	5565	684.038486641659	12
8	5570	684.115684068377	11
8	5582	685.886718159369	12
8	5622	689.038307745841	11
8	5639	691.937051960804	12
8	5659	694.458499788125	11
8	5671	695.774693612463	12
8	5676	695.90611689681	11
8	5696	696.199206317459	10
8	5713	697.353586283502	11
8	5715	697.546699129964	12
8	5717	697.611803479382	13
8	5722	699.654531235989	12
8	5732	699.840411961077	11
8	5737	699.875621283535	10
8	5744	700.079465662702	11
8	5751	700.72667823284	12
8	5776	704.246837586495	11
8	5793	705.476543667235	12
8	5795	705.704418021312	13
8	5797	709.240392158226	14
8	5799	709.686431128943	15
8	5801	710.587412458897	16
8	5803	714.876072199054	17
8	5810	715.654506709759	18
8	5815	715.71201786048	17
8	5837	717.434239564735	18
8	5844	719.587771087997	19
8	5846	720.474185746537	20
8	5851	722.351013947915	19
8	5866	724.103923812065	18
8	5871	724.207813503088	17
8	5878	726.082290236806	18
8	5880	729.398444093216	19
8	5912	730.968566643181	18
8	5960	732.797142886984	17
8	5965	732.804372621487	16
8	5979	733.275756136949	17
8	5992	733.392246608461	16
8	6009	735.3034026755	17
8	6036	736.688937908708	18
8	6041	736.931878139872	17
8	6066	738.959920416311	16
8	6101	743.053533478079	15
8	6108	747.376246010483	16
8	6118	748.575839615368	15
8	6123	748.706468826832	14
8	6135	749.33258228878	15
8	6152	752.322402908442	16
8	6154	752.666152326881	17
8	6170	753.383401211347	18
8	6173	753.536014715001	17
8	6186	754.011879576388	16
8	6203	754.828455160751	15
8	6218	755.946800245955	16
8	6220	758.296980320799	17
8	6222	758.362841624792	18
8	6224	762.058194061107	19
8	6261	767.097243255978	20
8	6341	777.801007548211	19
8	6351	777.852000727876	18
8	6358	778.07720779854	17
8	6381	778.86897853077	16
8	6407	779.805620567723	17
8	6413	779.84993531047	16
8	6425	780.366476520936	17
8	6452	786.575689602628	18
8	6459	786.74767844426	19
8	6463	786.953298772489	20
8	6486	787.953026856109	19
8	6496	788.678723115093	18
8	6501	788.910553877301	17
8	6511	789.114805441413	16
8	6518	789.489542326352	17
8	6528	789.678602074812	16
8	6540	790.790322994413	17
8	6560	792.925043575613	16
8	6582	794.952414419586	17
8	6592	798.97206997652	16
8	6599	799.298900226312	17
8	6601	799.700749445513	18
8	6626	808.926669633316	17
8	6641	810.252483000571	16
8	6658	811.160379601108	17
8	6673	812.231119685834	16
8	6680	812.437062915594	15
8	6685	812.440606001476	14
8	6695	814.536836911034	15
8	6697	815.457279034574	16
8	6702	816.076521496178	15
8	6714	818.664031644711	16
8	6716	819.190325103348	17
8	6718	819.483955512959	18
8	6733	819.846797399698	17
8	6743	820.349887362266	16
8	6748	820.406503736428	15
8	6778	821.950509099978	14
8	6800	824.218669225412	13
8	6813	824.767026857021	12
8	6830	825.191156485447	13
8	6850	826.076508500286	12
8	6872	826.845310403845	13
8	6887	827.610485360864	12
8	6894	827.95340781828	13
8	6899	828.318413772349	12
8	6934	829.696940234793	11
8	6952	830.143458288313	12
8	6960	830.313864545945	11
8	6969	830.751056640983	12
8	6982	831.163087522792	13
8	6989	831.282365351746	14
8	7017	831.994311584186	13
8	7032	832.374358354382	12
8	7062	833.248261367993	11
8	7066	833.249048653326	12
8	7089	837.595377961353	11
8	7094	837.657873417529	10
8	7110	837.799601897716	11
8	7123	838.978827578117	12
8	7125	839.657555416008	13
8	7127	840.491470076173	14
8	7132	841.236188733354	13
8	7159	843.260307127876	14
8	7164	843.684406552517	13
8	7169	843.786443834725	12
8	7179	844.183669820089	11
8	7184	844.183756856964	10
8	7191	845.205204336276	11
8	7193	845.223904180388	12
8	7195	845.268623635827	13
8	7217	847.348746560645	14
8	7219	847.691172962598	15
8	7221	849.680334590995	16
8	7235	850.991131007378	15
8	7266	852.351634669239	14
8	7305	854.698377039483	15
8	7313	855.155395053247	14
8	7340	858.559987042422	15
8	7352	862.149693321585	16
8	7357	863.346209373564	15
8	7364	864.571188745796	16
8	7369	865.517177906248	15
8	7374	865.528530275352	14
8	7384	866.397648552136	13
8	7391	868.327139308352	14
8	7398	868.772609985581	15
8	7412	870.091779483906	16
8	7447	872.934729981678	17
8	7452	873.163827178171	16
8	7457	873.460035177597	15
8	7464	874.115030045867	16
8	7469	875.677635978454	15
8	7491	877.40066559129	16
8	7506	880.301946607501	15
8	7513	880.511273773054	16
8	7515	880.862989645186	17
8	7534	883.887400887432	18
8	7544	889.168071481991	19
8	7576	897.390228408527	20
8	7618	900.598599805876	19
8	7623	900.681258455392	18
8	7628	900.843876824895	17
8	7648	903.588951126014	18
8	7660	904.373281397319	17
8	7688	907.011337451069	16
8	7700	907.990934790904	17
8	7754	913.106628342395	18
8	7757	913.158051354889	17
8	7762	913.400160855772	16
8	7774	915.555447601974	17
8	7779	917.777753676044	16
8	7791	917.971105850367	15
8	7831	919.639894955099	16
8	7841	920.712088329082	15
8	7845	920.7340948812	16
8	7848	920.882616244357	15
8	7863	921.394028264169	14
8	7875	922.920771145004	15
8	7890	923.735727976813	14
8	7895	923.789144814526	13
8	7902	923.994762146709	14
8	7906	924.650260034632	15
8	7909	924.655663780662	14
8	7914	924.697745150733	13
8	7921	925.877751234002	14
8	7923	926.583954479362	15
8	7928	926.648526422922	14
8	7955	928.049728494651	13
8	7975	928.710457369977	14
8	7982	929.832650406547	15
8	7997	933.190603626459	14
8	8017	933.881900322271	13
8	8024	934.194435567412	14
8	8049	934.787244057419	13
8	8061	937.070179273835	14
8	8066	937.839105034601	13
8	8073	938.751242913398	14
8	8075	941.448221770707	15
8	8087	943.358458376582	16
8	8094	944.699836643042	17
8	8124	947.816177509279	16
8	8136	948.037760138025	15
8	8146	948.694826361774	14
8	8166	949.83797174302	15
8	8176	950.601729938487	14
8	8198	951.840962498085	15
8	8200	952.775958547673	16
8	8207	952.945673268388	17
8	8214	953.510425918421	18
8	8221	954.874276076389	19
8	8356	967.001949667096	18
8	8366	967.321652653027	17
8	8375	967.586053202421	18
8	8388	967.973742193977	17
8	8403	968.311049104879	16
8	8428	969.481049842736	15
8	8438	970.404954727807	14
8	8443	970.526732622233	13
8	8450	970.966814233495	14
8	8452	971.083285456292	15
8	8459	973.202413979399	16
8	8466	973.592801031361	17
8	8483	976.757701710962	18
8	8518	984.817057940325	17
8	8533	985.887685055002	16
8	8540	988.251641365388	17
8	8542	988.831538851428	18
8	8559	992.148128774625	19
8	8564	993.761459995446	18
8	8574	996.499399412109	17
8	8594	997.664442046472	16
8	8601	998.627009827073	17
8	8613	999.642637920702	18
8	8623	1000.29794475932	17
8	8735	1009.275427663436	16
8	8740	1009.451772707799	15
8	8768	1010.718585458693	14
8	8775	1010.810600092542	15
8	8777	1011.347872682582	16
8	8797	1014.634432928623	15
8	8806	1014.700808271058	16
8	8821	1017.174974226856	17
8	8826	1017.645035161716	16
8	8863	1022.665373352749	17
8	8882	1024.410433982838	18
8	8885	1024.455023453504	17
8	8890	1024.633483082502	16
8	8900	1024.770465729447	15
8	8905	1024.793798945127	14
8	8922	1026.176329617382	15
8	8929	1028.675991180063	16
8	8938	1029.357692499535	17
8	8941	1029.46514858608	16
8	8951	1029.857523005395	15
8	8956	1029.867339860512	14
8	8960	1030.188641220745	15
8	8983	1031.176871411829	14
8	8990	1031.595592292311	15
8	8995	1031.674163384464	14
8	9004	1031.879101255538	15
8	9007	1031.982573907008	14
8	9016	1032.522029063204	15
8	9029	1033.15138281524	14
8	9044	1033.975965064421	13
8	9049	1034.077666161757	12
8	9074	1034.585296171471	11
8	9086	1035.019356261719	12
8	9088	1036.122810276992	13
8	9100	1037.691927696219	14
8	9102	1037.712092510186	15
8	9109	1044.340410447529	16
8	9111	1045.927091936944	17
8	9113	1048.216289350366	18
8	9115	1048.841104678575	19
8	9120	1052.187240532735	18
8	9135	1054.191115340936	17
8	9139	1054.392111106428	18
8	9152	1056.701941309693	17
8	9172	1057.855164827512	16
8	9209	1064.006450472285	17
8	9211	1067.408868398739	18
8	9226	1069.550505907092	17
8	9263	1079.15435886786	18
8	9273	1083.724578330621	17
8	9298	1085.136279587006	16
8	9307	1086.461454782432	17
8	9312	1091.468903597948	18
8	9359	1096.683215123353	19
8	9364	1096.790506169816	18
8	9406	1104.460859160241	17
8	9421	1105.165261685234	18
8	9448	1109.102557231245	19
8	9478	1115.587845355095	18
8	9483	1115.638774117581	17
8	9488	1115.705534024854	16
8	9540	1120.414039994941	17
8	9545	1120.869483380082	16
8	9557	1122.151124122749	17
8	9574	1126.839610013137	18
8	9578	1128.480887506475	19
8	9596	1134.054065942998	18
8	9603	1135.952098770553	19
8	9610	1138.189253974719	20
8	9615	1141.434200345519	19
8	9670	1144.800563401869	18
8	9677	1146.244854226221	19
8	9692	1147.413993286302	18
8	9709	1148.103712966573	17
8	9724	1148.733383815576	18
8	9729	1149.057282676123	17
8	9735	1149.192980749314	18
8	9738	1149.20092847645	17
8	9753	1149.922494938701	18
8	9758	1152.572045703569	17
8	9765	1153.868467165453	18
8	9767	1155.20144526818	19
8	9772	1157.333773648117	18
8	9799	1158.86306714689	19
8	9834	1171.26179838164	18
8	9851	1172.010990963335	19
8	9853	1174.121522246589	20
8	9933	1187.544132696028	19
8	9978	1190.156836246431	18
8	9995	1191.650656821241	19
8	10005	1195.44201584716	18
8	10042	1198.538066414336	19
8	10062	1201.571642578811	18
8	10066	1201.586125977982	19
8	10108	1203.938851252856	20
8	10116	1204.141130855598	19
8	10151	1211.127444149816	18
8	10173	1211.999544896544	19
8	10175	1215.648859231046	20
8	10200	1221.953316218502	19
8	10205	1222.148022569759	18
8	10230	1223.666943601628	17
8	10240	1224.214913518804	16
8	10255	1225.593434566651	15
8	10279	1227.038006080785	16
8	10292	1227.261190086339	15
8	10329	1228.993271828968	14
8	10337	1229.093324568931	13
8	10344	1229.749921097591	14
8	10346	1230.215069893181	15
8	10363	1232.234369605988	16
8	10365	1232.923359114433	17
8	10405	1236.712358711294	16
8	10420	1237.42835776647	15
8	10437	1239.621412682829	16
8	10439	1239.819042700251	17
8	10461	1246.191399131252	18
8	10478	1248.012051578426	19
8	10533	1258.582284734512	18
8	10538	1258.58951599365	17
8	10545	1261.19834511081	18
8	10552	1262.161524714644	19
8	10557	1262.425843734798	18
8	10564	1264.646106700455	19
8	10576	1268.123104700767	20
8	10581	1269.950679959552	19
8	10601	1276.144962825463	18
8	10618	1279.81449087603	19
8	10640	1281.671889771818	18
8	10680	1286.441970293748	17
8	10695	1289.044586110272	18
8	10705	1290.732452852336	17
8	10715	1291.046426452943	16
8	10719	1291.170211721645	17
8	10727	1291.754742148766	16
8	10734	1293.47117236679	17
8	10736	1295.077957638127	18
8	10768	1297.263333860246	19
8	10778	1299.17315093914	18
8	10785	1303.626651860243	19
8	10805	1306.266479585914	18
8	10822	1312.085944872038	19
8	10829	1314.255246643025	20
8	10834	1314.5499910788	19
8	10849	1314.738352325159	18
8	10858	1314.965327567792	19