version 2
run Multitask30-22-20150106-11:37:59-1720
attr configname Multitask30
attr datetime 20150106-11:37:59
attr experiment Multitask30
attr inifile omnetpp.ini
attr iterationvars ""
attr iterationvars2 $repetition=22
attr measurement ""
attr network Multitask
attr processid 1720
attr repetition 22
attr replication #22
attr resultdir results
attr runnumber 22
attr seedset 22

vector 8  Multitask.allocateQ2  queueLength:vector  ETV
attr interpolationmode  sample-hold
attr title  "queue length, vector"
vector 11  Multitask.queue3  queueLength:vector  ETV
attr interpolationmode  sample-hold
attr title  "queue length, vector"
vector 13  Multitask.queue3  busy:vector  ETV
attr interpolationmode  sample-hold
attr title  "server busy state, vector"
vector 15  Multitask.queue4  queueLength:vector  ETV
attr interpolationmode  sample-hold
attr title  "queue length, vector"
vector 17  Multitask.queue4  busy:vector  ETV
attr interpolationmode  sample-hold
attr title  "server busy state, vector"
vector 19  Multitask.queue5  queueLength:vector  ETV
attr interpolationmode  sample-hold
attr title  "queue length, vector"
vector 21  Multitask.queue5  busy:vector  ETV
attr interpolationmode  sample-hold
attr title  "server busy state, vector"
vector 23  Multitask.queue6  queueLength:vector  ETV
attr interpolationmode  sample-hold
attr title  "queue length, vector"
vector 25  Multitask.queue6  busy:vector  ETV
attr interpolationmode  sample-hold
attr title  "server busy state, vector"
vector 27  Multitask.queue7  queueLength:vector  ETV
attr interpolationmode  sample-hold
attr title  "queue length, vector"
vector 29  Multitask.queue7  busy:vector  ETV
attr interpolationmode  sample-hold
attr title  "server busy state, vector"
vector 30  Multitask.resourceCPU  amount:vector  ETV
attr interpolationmode  sample-hold
attr title  "available resource, vector"
vector 12  Multitask.queue3  queueingTime:vector  ETV
attr interpolationmode  none
attr title  "queueing time at dequeue, vector"
attr unit  s
vector 28  Multitask.queue7  queueingTime:vector  ETV
attr interpolationmode  none
attr title  "queueing time at dequeue, vector"
attr unit  s
vector 20  Multitask.queue5  queueingTime:vector  ETV
attr interpolationmode  none
attr title  "queueing time at dequeue, vector"
attr unit  s
vector 16  Multitask.queue4  queueingTime:vector  ETV
attr interpolationmode  none
attr title  "queueing time at dequeue, vector"
attr unit  s
vector 24  Multitask.queue6  queueingTime:vector  ETV
attr interpolationmode  none
attr title  "queueing time at dequeue, vector"
attr unit  s
vector 9  Multitask.allocateQ2  queueingTime:vector  ETV
attr interpolationmode  none
attr title  "queueing time at dequeue, vector"
attr unit  s
vector 0  Multitask.sink  lifeTime:vector  ETV
attr interpolationmode  none
attr title  "lifetime of arrived jobs, vector"
attr unit  s
vector 1  Multitask.sink  totalQueueingTime:vector  ETV
attr interpolationmode  none
attr title  "the total time spent in queues by arrived jobs, vector"
attr unit  s
vector 4  Multitask.sink  queuesVisited:vector  ETV
attr interpolationmode  none
attr title  "the total number of queues visited by arrived jobs, vector"
vector 3  Multitask.sink  totalServiceTime:vector  ETV
attr interpolationmode  none
attr title  "the total time spent  by arrived jobs, vector"
attr unit  s
vector 2  Multitask.sink  totalDelayTime:vector  ETV
attr interpolationmode  none
attr title  "the total time spent in delay nodes by arrived jobs, vector"
attr unit  s
vector 5  Multitask.sink  delaysVisited:vector  ETV
attr interpolationmode  none
attr title  "the total number of delays visited by arrived jobs, vector"
vector 6  Multitask.sink  generation:vector  ETV
attr interpolationmode  none
attr title  "the generation of the arrived jobs, vector"
0	12236	1420.87745471781	1420.8774547178
0	12242	1420.901738488161	1420.9017384882
0	12275	1425.798411525325	1425.7984115253
0	12286	1426.38595754728	1426.3859575473
0	12297	1426.484090536896	1426.4840905369
0	12394	1442.100047172411	1442.1000471724
0	12405	1442.122569427669	1442.1225694277
0	12446	1444.16297387206	1444.1629738721
0	12477	1449.848475839061	1449.8484758391
0	12488	1450.217704508848	1450.2177045088
0	12519	1451.803722213605	1451.8037222136
0	12547	1452.745691496864	1452.7456914969
0	12586	1455.216079586338	1455.2160795863
0	12592	1455.334278866322	1455.3342788663
0	12608	1456.220472214002	1456.220472214
0	12644	1462.016554744107	1462.0165547441
0	12650	1462.070432942334	1462.0704329423
0	12661	1463.028563156122	1463.0285631561
0	12667	1463.030550714654	1463.0305507147
0	12673	1463.072346194138	1463.0723461941
0	12678	1463.156090281599	1463.1560902816
0	12685	1463.765925765061	1463.7659257651
0	12707	1467.684656878315	1467.6846568783
0	12726	1470.864453283911	1470.8644532839
0	12741	1474.618279505816	1474.6182795058
1	12236	1420.87745471781	1143.7235098452
1	12242	1420.901738488161	1175.7351923129
1	12275	1425.798411525325	1102.987043004
1	12286	1426.38595754728	1123.487178066
1	12297	1426.484090536896	1071.0010774163
1	12394	1442.100047172411	1195.9532779944
1	12405	1442.122569427669	1072.6695578825
1	12446	1444.16297387206	1133.427337925
1	12477	1449.848475839061	1182.0323164334
1	12488	1450.217704508848	1157.8186809256
1	12519	1451.803722213605	1115.3633823823
1	12547	1452.745691496864	1161.1674168543
1	12586	1455.216079586338	1169.2591404543
1	12592	1455.334278866322	1201.8005035984
1	12608	1456.220472214002	1173.0150752519
1	12644	1462.016554744107	1115.7984208695
1	12650	1462.070432942334	1194.7537321265
1	12661	1463.028563156122	1195.4819580242
1	12667	1463.030550714654	1120.0835034544
1	12673	1463.072346194138	1170.8328559453
1	12678	1463.156090281599	1131.9527764389
1	12685	1463.765925765061	1103.9384422947
1	12707	1467.684656878315	1115.0465330482
1	12726	1470.864453283911	1210.9831637942
1	12741	1474.618279505816	1205.9794677082
2	12236	1420.87745471781	0
2	12242	1420.901738488161	0
2	12275	1425.798411525325	0
2	12286	1426.38595754728	0
2	12297	1426.484090536896	0
2	12394	1442.100047172411	0
2	12405	1442.122569427669	0
2	12446	1444.16297387206	0
2	12477	1449.848475839061	0
2	12488	1450.217704508848	0
2	12519	1451.803722213605	0
2	12547	1452.745691496864	0
2	12586	1455.216079586338	0
2	12592	1455.334278866322	0
2	12608	1456.220472214002	0
2	12644	1462.016554744107	0
2	12650	1462.070432942334	0
2	12661	1463.028563156122	0
2	12667	1463.030550714654	0
2	12673	1463.072346194138	0
2	12678	1463.156090281599	0
2	12685	1463.765925765061	0
2	12707	1467.684656878315	0
2	12726	1470.864453283911	0
2	12741	1474.618279505816	0
3	12236	1420.87745471781	102.15535917187
3	12242	1420.901738488161	103.19888476547
3	12275	1425.798411525325	110.13736303329
3	12286	1426.38595754728	121.70620419645
3	12297	1426.484090536896	106.18501819788
3	12394	1442.100047172411	103.73178735348
3	12405	1442.122569427669	168.61796144498
3	12446	1444.16297387206	131.6938731135
3	12477	1449.848475839061	125.66337469363
3	12488	1450.217704508848	55.738296518935
3	12519	1451.803722213605	129.4990705155
3	12547	1452.745691496864	110.96037202605
3	12586	1455.216079586338	75.971725064521
3	12592	1455.334278866322	95.583881390181
3	12608	1456.220472214002	113.73729880818
3	12644	1462.016554744107	79.689855329164
3	12650	1462.070432942334	131.04904306695
3	12661	1463.028563156122	103.69112976047
3	12667	1463.030550714654	115.19786593091
3	12673	1463.072346194138	112.62520761938
3	12678	1463.156090281599	116.69671887317
3	12685	1463.765925765061	164.84887014385
3	12707	1467.684656878315	133.87061277331
3	12726	1470.864453283911	124.0006831451
3	12741	1474.618279505816	81.988606129086
4	12236	1420.87745471781	52
4	12242	1420.901738488161	43
4	12275	1425.798411525325	37
4	12286	1426.38595754728	53
4	12297	1426.484090536896	35
4	12394	1442.100047172411	44
4	12405	1442.122569427669	68
4	12446	1444.16297387206	46
4	12477	1449.848475839061	55
4	12488	1450.217704508848	25
4	12519	1451.803722213605	44
4	12547	1452.745691496864	52
4	12586	1455.216079586338	22
4	12592	1455.334278866322	35
4	12608	1456.220472214002	38
4	12644	1462.016554744107	34
4	12650	1462.070432942334	53
4	12661	1463.028563156122	35
4	12667	1463.030550714654	44
4	12673	1463.072346194138	33
4	12678	1463.156090281599	43
4	12685	1463.765925765061	60
4	12707	1467.684656878315	49
4	12726	1470.864453283911	38
4	12741	1474.618279505816	26
5	12236	1420.87745471781	0
5	12242	1420.901738488161	0
5	12275	1425.798411525325	0
5	12286	1426.38595754728	0
5	12297	1426.484090536896	0
5	12394	1442.100047172411	0
5	12405	1442.122569427669	0
5	12446	1444.16297387206	0
5	12477	1449.848475839061	0
5	12488	1450.217704508848	0
5	12519	1451.803722213605	0
5	12547	1452.745691496864	0
5	12586	1455.216079586338	0
5	12592	1455.334278866322	0
5	12608	1456.220472214002	0
5	12644	1462.016554744107	0
5	12650	1462.070432942334	0
5	12661	1463.028563156122	0
5	12667	1463.030550714654	0
5	12673	1463.072346194138	0
5	12678	1463.156090281599	0
5	12685	1463.765925765061	0
5	12707	1467.684656878315	0
5	12726	1470.864453283911	0
5	12741	1474.618279505816	0
6	12236	1420.87745471781	0
6	12242	1420.901738488161	0
6	12275	1425.798411525325	0
6	12286	1426.38595754728	0
6	12297	1426.484090536896	0
6	12394	1442.100047172411	0
6	12405	1442.122569427669	0
6	12446	1444.16297387206	0
6	12477	1449.848475839061	0
6	12488	1450.217704508848	0
6	12519	1451.803722213605	0
6	12547	1452.745691496864	0
6	12586	1455.216079586338	0
6	12592	1455.334278866322	0
6	12608	1456.220472214002	0
6	12644	1462.016554744107	0
6	12650	1462.070432942334	0
6	12661	1463.028563156122	0
6	12667	1463.030550714654	0
6	12673	1463.072346194138	0
6	12678	1463.156090281599	0
6	12685	1463.765925765061	0
6	12707	1467.684656878315	0
6	12726	1470.864453283911	0
6	12741	1474.618279505816	0
8	0	0	0
8	117	2.489801043453	1
8	122	2.674058998555	2
8	126	3.154409268395	3
8	131	4.137956526898	4
8	133	5.456552464769	5
8	135	6.237213854844	6
8	137	6.57164510203	7
8	139	8.237199779847	8
8	149	8.765411011453	7
8	154	8.869201942559	6
8	176	10.146732896576	7
8	180	11.335230944726	8
8	188	11.478347386731	7
8	198	11.724037021223	6
8	202	11.745478415398	7
8	210	11.999679358101	6
8	217	12.105375672369	7
8	234	13.10590492638	8
8	236	13.112115407102	9
8	238	15.142831063652	10
8	243	15.616559149821	9
8	255	16.205548162231	10
8	267	16.710522896658	11
8	269	16.805375835315	12
8	301	18.754171056867	13
8	306	19.544737673018	12
8	310	19.602869871236	13
8	313	19.656522075938	12
8	317	19.835326330786	13
8	325	20.158888469229	12
8	357	22.378295584793	13
8	367	22.828679826682	12
8	374	23.024737711466	13
8	376	23.355045486319	14
8	383	27.161871679526	15
8	385	27.214991514798	16
8	387	28.05288352498	17
8	389	29.554048179697	18
8	391	32.588399479931	19
8	401	33.19022529095	18
8	408	36.794849689318	19
8	415	41.628697981219	20
8	430	43.533113380244	19
8	455	47.92055338926	18
8	460	48.026583118544	17
8	477	49.770882728052	18
8	482	50.000879927445	17
8	492	50.449875787935	16
8	499	50.797166954677	17
8	536	53.687377395216	18
8	538	54.045023448598	19
8	548	55.655653597558	18
8	578	57.649264355538	17
8	585	58.190550781794	18
8	595	58.45553476254	17
8	600	58.694875115064	16
8	609	58.754622527383	17
8	639	65.073131979144	18
8	641	69.779747122936	19
8	646	71.051493534681	18
8	656	71.619211848069	17
8	661	71.660770460337	16
8	673	72.105698131122	17
8	678	72.340073992423	16
8	690	73.622847083223	17
8	692	74.496747326565	18
8	694	75.296267948209	19
8	699	76.228690175052	18
8	706	78.218810345825	19
8	708	80.023807607837	20
8	728	85.667329758055	19
8	755	90.265952122059	20
8	790	97.281335979704	19
8	810	99.215891311848	18
8	817	101.332829508642	19
8	832	102.323681650441	18
8	839	102.368020317338	19
8	846	107.261997217107	20
8	856	107.962461016777	19
8	911	117.44143105861	18
8	918	118.139118537554	19
8	955	122.313301204335	20
8	965	125.152105359507	19
8	1015	130.275312537734	18
8	1040	131.347883663589	17
8	1045	131.38633622965	16
8	1050	131.393906317607	15
8	1055	131.42145143008	14
8	1074	132.049238549408	15
8	1084	136.091315889133	16
8	1086	136.249419164956	17
8	1101	138.346628565402	16
8	1111	138.671424550014	15
8	1121	138.748244177123	14
8	1138	141.866204490708	15
8	1140	142.120812730907	16
8	1147	145.293663470874	17
8	1149	145.45456655004	18
8	1161	147.797140251929	19
8	1181	150.652249100881	18
8	1191	154.15313131291	17
8	1198	155.023717522581	18
8	1208	155.89641036859	17
8	1215	162.777764268583	18
8	1217	164.117804774029	19
8	1272	170.034440638649	18
8	1282	170.617029431118	17
8	1339	172.643088876628	18
8	1344	172.962355591112	17
8	1384	179.167346314585	16
8	1396	179.646847813851	17
8	1418	182.833932713972	18
8	1420	183.151259535775	19
8	1437	185.778927477921	20
8	1447	190.733034095053	19
8	1489	195.496508709236	20
8	1494	195.879412313948	19
8	1504	197.552486685872	18
8	1509	197.569073291135	17
8	1516	198.569447912956	18
8	1518	200.416690454323	19
8	1523	201.334877449376	18
8	1533	202.146250871236	17
8	1543	202.818674258637	16
8	1560	203.921760686117	17
8	1577	208.622003121566	18
8	1584	210.982330354414	19
8	1679	223.20179152202	18
8	1684	223.25303278141	17
8	1689	223.280569462123	16
8	1701	226.267948143532	17
8	1706	228.469179286463	16
8	1718	230.512599385063	17
8	1723	232.656323908716	16
8	1730	232.799925848549	17
8	1737	235.50655183492	18
8	1739	240.958641499091	19
8	1746	241.632455682795	20
8	1751	241.990772405514	19
8	1758	242.109057224527	18
8	1766	242.168941688222	17
8	1771	242.25211304423	16
8	1781	242.348245060095	15
8	1795	243.132679441204	16
8	1800	243.186183220916	17
8	1812	243.488736406621	18
8	1814	243.834183861464	19
8	1819	244.296683865828	18
8	1830	245.681462695692	19
8	1873	252.459412186321	20
8	1883	253.128598910285	19
8	1928	258.915162776829	18
8	1980	264.153507335116	19
8	1985	266.0258708282	18
8	1995	266.386446687844	17
8	2022	268.015718087187	18
8	2076	273.251205166518	19
8	2089	275.182233279372	18
8	2114	276.293265215566	17
8	2124	276.457999642814	16
8	2139	276.811866607792	15
8	2144	276.883262260708	14
8	2164	277.499015358893	13
8	2169	277.6130965261	12
8	2194	278.276901652771	11
8	2200	278.439520868513	12
8	2210	278.921247166204	13
8	2215	278.979840051036	14
8	2225	279.51237746479	13
8	2249	282.30096319687	14
8	2264	284.169989729808	15
8	2271	284.978564424845	16
8	2291	286.546304436944	15
8	2296	286.560254338622	14
8	2303	286.669270410847	15
8	2313	286.941174908343	14
8	2318	287.023581722374	13
8	2325	287.24049480545	12
8	2329	287.351406321648	13
8	2340	287.98001042639	12
8	2345	288.046240258179	11
8	2364	289.172200836961	12
8	2379	289.670567029327	11
8	2384	289.730858227118	10
8	2407	290.587315864124	9
8	2417	291.412358367186	8
8	2421	291.886668840513	9
8	2446	292.676916027702	10
8	2451	292.802140785964	9
8	2461	293.047408856199	8
8	2473	293.113471338253	7
8	2488	293.49442090071	6
8	2496	293.591914411154	5
8	2522	295.01568420119	6
8	2530	295.165875184943	7
8	2542	295.991036108108	8
8	2544	296.648736189564	9
8	2546	298.682208343004	10
8	2548	299.423983253987	11
8	2550	300.405220325562	12
8	2552	304.983335538023	13
8	2564	311.812916856682	14
8	2566	313.075775837266	15
8	2568	314.995896795142	16
8	2570	316.055016224104	17
8	2580	317.024759034314	16
8	2587	317.269033917616	17
8	2592	317.70478435384	16
8	2606	318.819192160639	17
8	2611	318.937272690584	18
8	2613	319.361858862478	19
8	2628	320.96234829178	18
8	2655	327.519986946525	19
8	2665	331.654244247016	18
8	2675	331.796900287028	17
8	2687	331.911134814601	16
8	2705	333.508987713075	15
8	2717	334.316632131395	16
8	2719	337.445865849625	17
8	2721	338.268409537693	18
8	2733	341.505273239775	19
8	2738	341.722053927685	18
8	2758	344.563913464558	17
8	2780	349.239856985595	18
8	2787	351.698647439717	19
8	2814	357.363423496735	20
8	2864	365.762849470738	19
8	2889	367.30607083736	18
8	2896	367.471167880389	19
8	2925	368.658789090585	18
8	2971	370.286789917056	17
8	3003	374.163497896611	18
8	3008	375.523630675686	17
8	3020	378.598090627836	18
8	3022	380.805165172202	19
8	3027	382.977565655758	18
8	3049	384.672210562709	17
8	3054	384.699713568274	16
8	3071	386.175104616888	17
8	3076	389.873574586239	18
8	3083	394.208774570611	19
8	3085	397.985782650858	20
8	3135	404.943936739507	19
8	3155	407.356888790845	18
8	3169	408.108547633853	19
8	3177	408.538905236352	18
8	3187	410.525385455243	17
8	3202	411.786278366353	16
8	3239	415.35148979651	17
8	3246	416.79097027963	18
8	3258	420.840057658799	19
8	3265	422.14210275658	20
8	3295	433.072052273504	19
8	3325	435.96101216307	18
8	3340	438.882967688452	17
8	3355	439.19587212228	16
8	3360	439.212962518762	15
8	3372	441.867353403111	16
8	3374	444.171452033627	17
8	3376	445.273168978806	18
8	3381	445.654017854188	17
8	3433	455.151215989914	18
8	3435	456.169166912465	19
8	3465	458.10302853125	18
8	3492	464.142308328031	19
8	3532	480.631193175051	18
8	3554	481.91279018168	19
8	3566	483.839872633447	20
8	3586	485.215881260499	19
8	3611	487.036673858475	18
8	3638	487.600697117497	19
8	3670	491.674864163964	20
8	3685	493.744342244554	19
8	3695	493.8044587557	18
8	3717	497.299650524785	19
8	3762	502.550033135347	18
8	3817	506.299328073707	17
8	3844	507.572055169483	16
8	3866	509.931912665845	17
8	3884	512.232883103451	16
8	3893	512.681549454399	17
8	3900	512.883730403589	18
8	3905	512.897467606976	17
8	3911	512.998152045986	18
8	3967	517.247734134354	19
8	3969	517.833843542025	20
8	3974	518.612219173118	19
8	3984	519.715816878569	18
8	3994	521.104979878159	17
8	4024	522.901012314394	16
8	4034	523.316691869805	15
8	4038	523.336802064919	16
8	4048	524.61703119765	17
8	4053	524.761616196544	16
8	4072	525.656180871959	17
8	4075	525.899605622704	16
8	4092	526.587304371176	17
8	4102	527.293361320628	16
8	4137	531.429289312692	15
8	4142	531.461738578247	14
8	4149	533.303796625443	15
8	4154	534.77624679978	14
8	4166	535.61084974141	15
8	4173	537.697090918489	16
8	4180	541.274523637413	17
8	4187	542.144534519608	18
8	4192	543.95707909944	17
8	4212	546.446530743598	16
8	4237	550.858372088326	15
8	4244	551.036657726707	16
8	4254	552.166692573896	15
8	4274	552.682441854426	14
8	4281	552.756356028096	13
8	4291	552.829051639468	12
8	4306	554.065665096486	13
8	4308	556.326195920435	14
8	4310	557.0256462982	15
8	4312	557.301858131961	16
8	4352	560.383904170675	15
8	4357	560.420333226547	14
8	4379	560.648244458664	13
8	4402	561.480441311085	12
8	4411	561.718713125282	13
8	4416	562.395300504496	14
8	4418	563.046681916365	15
8	4430	565.188157922915	16
8	4447	567.226849527273	17
8	4452	567.598546599084	16
8	4464	569.474051746902	17
8	4494	572.322104763661	16
8	4544	575.757878615845	15
8	4553	576.037550546922	16
8	4556	576.197282528361	15
8	4561	576.210822422934	14
8	4568	576.505823389049	15
8	4570	577.215489190663	16
8	4572	579.045133353683	17
8	4574	579.738603567915	18
8	4576	580.940065378857	19
8	4591	584.062745796596	18
8	4596	584.109977108606	17
8	4611	584.683795981657	16
8	4626	585.143586185064	15
8	4656	587.619215252729	14
8	4686	588.818470320547	13
8	4703	590.759681421792	14
8	4705	592.040296597623	15
8	4707	593.157014757547	16
8	4712	593.806012359259	15
8	4719	594.057754718814	16
8	4724	594.231071087463	15
8	4739	594.977984740803	14
8	4746	595.400369670966	15
8	4748	595.595783295815	16
8	4755	598.055109366179	17
8	4757	598.623174056744	18
8	4767	599.317688864849	17
8	4782	599.929635737703	16
8	4789	601.529338941596	17
8	4799	602.419601912024	16
8	4836	606.552914967422	17
8	4863	607.631703032623	18
8	4873	609.180405020233	17
8	4885	609.778530605662	16
8	4890	609.853012473847	15
8	4900	610.371259226758	16
8	4902	610.965114662366	17
8	4912	611.997866280028	16
8	4917	611.999012124352	15
8	4929	612.591507490716	14
8	4934	612.646288749035	13
8	4944	613.564504227474	14
8	4956	614.555017745462	15
8	4963	615.569303761176	16
8	4973	616.753711073854	15
8	4993	620.014920957682	14
8	5000	620.852878316038	15
8	5002	621.527926762613	16
8	5007	621.791077822529	15
8	5014	623.868236950934	16
8	5031	626.803378234621	17
8	5041	629.145768324045	16
8	5053	630.270489274307	17
8	5055	630.904491489903	18
8	5060	632.495463231692	17
8	5072	635.311314291096	18
8	5122	639.474095944736	17
8	5149	645.040843694457	18
8	5154	645.818713163767	17
8	5159	645.948632768188	16
8	5169	646.07956827694	15
8	5174	646.303239539125	14
8	5191	646.666456836456	15
8	5196	647.152480934987	14
8	5215	648.789973844565	15
8	5220	650.554601236054	16
8	5222	652.267405283071	17
8	5234	654.215387548185	18
8	5239	654.357574727564	17
8	5249	654.662042857026	16
8	5306	656.986131898645	17
8	5308	657.439682893389	18
8	5333	662.0807071008	17
8	5348	662.539782707421	16
8	5353	662.625878769328	15
8	5360	664.012274392769	16
8	5382	666.761342075324	17
8	5387	671.641885359546	16
8	5392	671.661638673467	15
8	5397	671.705870794739	14
8	5402	671.720418376094	13
8	5419	672.268341698347	14
8	5421	672.626513196799	15
8	5441	674.314922183308	14
8	5453	676.671063795889	15
8	5462	677.479894450549	16
8	5469	677.705283149713	17
8	5477	678.147302703849	16
8	5484	678.642902312879	17
8	5489	680.523344715829	16
8	5521	682.872926495501	17
8	5531	688.360137945884	16
8	5553	689.371726875241	17
8	5570	691.035572158723	18
8	5592	692.677256191626	17
8	5615	694.114591541355	16
8	5637	696.780996097569	17
8	5647	697.061123799839	16
8	5666	698.015260077127	17
8	5671	698.275175917287	18
8	5673	698.279267744079	19
8	5690	699.507701172377	20
8	5695	699.796832464241	19
8	5707	700.210595664435	18
8	5747	703.364623655176	19
8	5749	705.355177031711	20
8	5759	706.500235521007	19
8	5769	707.824798428285	18
8	5789	708.773373546174	17
8	5796	708.889511911676	18
8	5816	709.767170399521	17
8	5831	712.268079280006	16
8	5836	712.523578720163	15
8	5841	712.599307970869	14
8	5846	713.066912813634	13
8	5851	713.163745247312	12
8	5858	713.39359853939	13
8	5860	716.40181167652	14
8	5872	720.241483102264	15
8	5877	722.179548664665	14
8	5884	722.328618699434	13
8	5889	722.377828585854	12
8	5898	722.79821283533	13
8	5919	723.507406341366	12
8	5934	723.869446184	11
8	5939	723.927655191854	10
8	5943	724.019451340461	11
8	5952	724.473391962867	12
8	5968	724.940219088203	11
8	5983	725.599231254237	10
8	5988	725.606999937255	9
8	5992	725.720727093432	10
8	6002	726.026076797401	11
8	6004	726.262832828548	12
8	6009	726.487054387087	11
8	6016	726.561921341366	12
8	6020	727.0263973568	13
8	6025	727.720540500522	14
8	6027	728.031732632142	15
8	6029	728.484999045441	16
8	6046	732.118480097746	17
8	6056	733.74954492057	16
8	6068	734.498621322277	17
8	6078	735.483839285521	16
8	6102	736.818928280911	17
8	6112	737.293179737975	18
8	6117	737.585171966372	17
8	6122	737.748141947649	16
8	6164	741.527711117474	15
8	6174	743.067663754219	16
8	6176	744.718819363637	17
8	6178	746.558820689717	18
8	6188	748.235678213722	17
8	6195	748.429703781416	16
8	6200	748.6633704457	15
8	6204	748.836870732089	16
8	6220	749.097396608295	15
8	6242	754.312077285536	16
8	6249	755.50196026704	17
8	6251	755.781966957652	18
8	6253	756.133412302161	19
8	6278	759.111460061312	18
8	6305	759.950305261912	19
8	6310	760.385705644012	18
8	6330	760.762091497049	17
8	6347	762.140505681377	18
8	6349	764.531974521228	19
8	6351	765.36686467386	20
8	6356	765.58240244966	19
8	6360	765.659843552628	20
8	6418	776.592680936389	19
8	6503	787.594817208691	18
8	6508	787.608474454069	17
8	6518	787.973311551189	16
8	6533	789.179027301785	15
8	6548	790.61989001364	14
8	6570	791.199631523787	15
8	6575	791.759928069627	14
8	6582	792.407819744462	15
8	6589	792.788114415321	16
8	6591	793.992280149742	17
8	6596	794.887681215002	16
8	6626	799.635837829045	15
8	6638	799.959152614096	16
8	6653	800.919032414184	15
8	6660	801.405620465919	16
8	6662	803.033357023622	17
8	6687	804.780938380478	16
8	6692	804.874823007335	15
8	6697	804.930421598307	14
8	6709	805.632376068514	15
8	6711	808.885497161134	16
8	6721	809.286400143047	15
8	6726	809.362247950084	14
8	6730	809.410127026107	15
8	6745	810.701456910976	16
8	6747	811.315051973277	17
8	6769	813.810951118844	18
8	6776	814.024763927507	19
8	6781	814.190733104297	18
8	6791	814.279679466716	17
8	6808	815.021002476583	18
8	6818	815.617935822577	17
8	6830	815.877358564501	16
8	6835	815.897488090946	15
8	6840	815.937961237731	14
8	6848	815.991166823596	13
8	6855	816.214253486156	14
8	6859	816.288571182627	15
8	6867	817.051457710843	14
8	6881	817.193447216466	15
8	6889	817.376049962369	14
8	6919	819.525866756618	13
8	6924	819.528161821541	12
8	6936	821.206073513288	13
8	6946	823.727652710365	12
8	6956	824.203755141951	11
8	6960	824.212145324548	12
8	6998	826.760443682052	11
8	7005	826.807270754357	12
8	7055	828.954002298135	11
8	7072	829.462658730514	12
8	7089	831.339694019537	13
8	7091	831.534060766606	14
8	7095	833.359688308507	15
8	7100	837.541898621168	16
8	7115	839.660324034919	15
8	7122	841.027279194222	16
8	7127	842.470543528086	15
8	7151	843.71733878301	16
8	7161	844.197617986748	17
8	7188	847.569429237702	18
8	7198	848.007376006637	17
8	7210	850.920404166571	18
8	7225	857.5467623007	17
8	7230	857.756346378064	16
8	7245	858.091710695849	15
8	7275	859.7068778627	14
8	7284	859.801163681712	15
8	7307	861.625955419133	14
8	7314	862.508777438152	15
8	7319	863.394342625522	14
8	7336	863.722678363379	15
8	7350	866.483981587988	16
8	7375	868.896457653108	17
8	7410	878.595746785706	16
8	7415	878.61876693892	15
8	7437	879.701241120713	16
8	7444	881.532954867535	17
8	7446	882.254280005319	18
8	7448	885.264047954517	19
8	7473	888.078049510577	18
8	7495	888.568383821144	19
8	7505	888.956380231658	18
8	7537	892.455320199052	19
8	7539	894.85883296297	20
8	7544	895.542255530461	19
8	7554	895.786976534836	18
8	7561	898.112245981956	19
8	7571	901.339174784569	18
8	7576	901.422267228828	17
8	7585	901.599060814421	18
8	7593	901.859796429214	17
8	7618	902.222190457466	16
8	7630	902.676658455802	15
8	7645	903.466378557835	14
8	7653	903.608418641959	13
8	7663	904.037355429748	12
8	7678	904.380508677386	11
8	7687	904.99908921835	12
8	7689	905.190311182741	13
8	7702	906.17820512365	12
8	7731	906.977348297909	13
8	7734	907.030009698217	12
8	7738	907.071171522135	13
8	7748	907.185928045689	12
8	7766	907.680040057988	11
8	7771	907.68563855144	10
8	7775	907.715449281774	11
8	7778	907.787212368093	10
8	7783	907.907610387827	9
8	7798	908.813022503648	8
8	7805	909.584188468204	9
8	7807	909.711891557211	10
8	7813	910.235779300784	11
8	7818	910.357972709413	12
8	7823	910.772809533683	13
8	7847	912.74321771618	14
8	7857	913.017344765383	15
8	7879	916.107038071281	16
8	7881	916.632462662953	17
8	7885	917.927215757437	18
8	7893	918.04781196867	17
8	7900	918.756735088317	18
8	7902	918.803254526405	19
8	7937	921.377780042969	18
8	7947	922.440775291492	17
8	7959	922.991610837722	18
8	7971	923.824825936533	19
8	7976	923.934435653355	18
8	8001	925.521808241947	17
8	8016	927.32481931837	16
8	8033	930.015173073922	17
8	8048	930.590032223711	16
8	8073	932.250811328191	15
8	8077	932.337191219478	16
8	8085	932.510866878654	15
8	8092	932.713367149638	16
8	8094	933.452252391264	17
8	8119	938.536307083549	16
8	8126	939.256929272852	17
8	8128	939.269542133069	18
8	8140	940.148205016586	19
8	8155	941.169034437534	18
8	8172	946.384796027602	19
8	8174	948.667513535717	20
8	8179	951.158562627286	19
8	8184	951.171910685168	18
8	8206	953.109081278671	17
8	8211	953.228173315437	16
8	8229	953.641598598513	15
8	8241	955.106295601185	16
8	8270	960.179376048603	17
8	8283	962.136495403547	16
8	8287	962.191598788966	17
8	8289	962.272955935614	18
8	8292	962.455088435297	17
8	8297	962.554011128913	16
8	8304	963.351910518477	17
8	8309	963.796040933913	16
8	8341	967.618194018832	17
8	8346	967.657864329619	16
8	8366	968.242561000426	15
8	8371	968.531048512542	14
8	8391	969.306221516829	13
8	8423	970.375003866344	12
8	8427	970.381677723652	13
8	8430	970.395371633995	12
8	8452	971.192057770786	13
8	8467	972.104542701461	14
8	8474	974.577592499425	15
8	8481	977.1951871073	16
8	8486	977.337344791146	15
8	8493	977.706512277253	14
8	8503	978.321600630259	15
8	8515	980.787035118703	16
8	8525	981.616638933738	15
8	8530	981.67355500723	14
8	8540	982.146724767827	13
8	8567	984.432711885948	14
8	8572	984.974557827902	13
8	8579	985.658900760244	14
8	8581	988.917778872797	15
8	8591	989.623714376504	14
8	8601	989.932340583301	13
8	8621	990.624851129476	12
8	8650	994.962426588963	13
8	8660	995.462642621714	14
8	8674	997.841198298821	15
8	8679	997.91009508064	16
8	8684	998.169363295843	15
8	8694	998.473448111581	14
8	8698	998.512497464392	15
8	8703	998.698024869808	14
8	8728	999.739518797178	15
8	8735	999.95386863716	16
8	8750	1002.184534382709	15
8	8754	1002.19263147713	16
8	8757	1002.340135510304	15
8	8767	1002.514800534279	14
8	8771	1002.558821932779	15
8	8779	1002.856292633343	14
8	8791	1003.49719379423	15
8	8803	1004.725381352879	16
8	8808	1006.997632217357	15
8	8823	1007.244907365382	14
8	8852	1009.585508747953	15
8	8857	1009.782724008664	16
8	8859	1010.386974599319	17
8	8869	1010.796362673228	16
8	8876	1011.328703439124	17
8	8881	1012.315134384888	16
8	8893	1013.766144354565	17
8	8905	1016.135263957961	16
8	8910	1016.258956257008	15
8	8918	1016.563279000269	14
8	8935	1016.966891084484	15
8	8940	1017.252791929481	14
8	8955	1017.40411460417	13
8	8962	1017.701718648457	14
8	8964	1018.192888725335	15
8	8981	1020.386429968213	16
8	8988	1020.735015246346	15
8	8996	1020.78248244698	14
8	9026	1022.781622336557	13
8	9030	1022.915298067269	14
8	9035	1023.260802575911	15
8	9042	1024.18644343909	16
8	9044	1024.619594634518	17
8	9051	1026.392866251565	18
8	9093	1030.513975694197	19
8	9108	1033.635984913313	18
8	9132	1036.433762580948	17
8	9163	1038.029746020483	16
8	9170	1038.41964697134	17
8	9177	1041.02481043468	18
8	9192	1043.57679400596	17
8	9196	1043.813642451349	18
8	9214	1045.148296310238	17
8	9234	1049.224059027881	16
8	9244	1049.459794373827	15
8	9251	1049.704852461804	14
8	9264	1050.397466917502	13
8	9268	1050.496366432501	14
8	9298	1052.4853578508	15
8	9303	1054.330332081065	14
8	9322	1059.152890071738	15
8	9325	1059.205844783758	14
8	9332	1059.271104192286	15
8	9347	1059.771418787592	14
8	9351	1059.789128074101	15
8	9368	1062.327170939705	16
8	9398	1064.228844806905	17
8	9400	1066.233264242954	18
8	9410	1068.893496176009	17
8	9420	1069.369590812129	16
8	9425	1069.428657021315	15
8	9434	1070.073806383876	16