version 2
run Multitask30-3-20150106-11:37:57-2772
attr configname Multitask30
attr datetime 20150106-11:37:57
attr experiment Multitask30
attr inifile omnetpp.ini
attr iterationvars ""
attr iterationvars2 $repetition=3
attr measurement ""
attr network Multitask
attr processid 2772
attr repetition 3
attr replication #3
attr resultdir results
attr runnumber 3
attr seedset 3

vector 8  Multitask.allocateQ2  queueLength:vector  ETV
attr interpolationmode  sample-hold
attr title  "queue length, vector"
vector 11  Multitask.queue3  queueLength:vector  ETV
attr interpolationmode  sample-hold
attr title  "queue length, vector"
vector 13  Multitask.queue3  busy:vector  ETV
attr interpolationmode  sample-hold
attr title  "server busy state, vector"
vector 15  Multitask.queue4  queueLength:vector  ETV
attr interpolationmode  sample-hold
attr title  "queue length, vector"
vector 17  Multitask.queue4  busy:vector  ETV
attr interpolationmode  sample-hold
attr title  "server busy state, vector"
vector 19  Multitask.queue5  queueLength:vector  ETV
attr interpolationmode  sample-hold
attr title  "queue length, vector"
vector 21  Multitask.queue5  busy:vector  ETV
attr interpolationmode  sample-hold
attr title  "server busy state, vector"
vector 23  Multitask.queue6  queueLength:vector  ETV
attr interpolationmode  sample-hold
attr title  "queue length, vector"
vector 25  Multitask.queue6  busy:vector  ETV
attr interpolationmode  sample-hold
attr title  "server busy state, vector"
vector 27  Multitask.queue7  queueLength:vector  ETV
attr interpolationmode  sample-hold
attr title  "queue length, vector"
vector 29  Multitask.queue7  busy:vector  ETV
attr interpolationmode  sample-hold
attr title  "server busy state, vector"
vector 30  Multitask.resourceCPU  amount:vector  ETV
attr interpolationmode  sample-hold
attr title  "available resource, vector"
vector 12  Multitask.queue3  queueingTime:vector  ETV
attr interpolationmode  none
attr title  "queueing time at dequeue, vector"
attr unit  s
vector 16  Multitask.queue4  queueingTime:vector  ETV
attr interpolationmode  none
attr title  "queueing time at dequeue, vector"
attr unit  s
vector 20  Multitask.queue5  queueingTime:vector  ETV
attr interpolationmode  none
attr title  "queueing time at dequeue, vector"
attr unit  s
vector 28  Multitask.queue7  queueingTime:vector  ETV
attr interpolationmode  none
attr title  "queueing time at dequeue, vector"
attr unit  s
vector 24  Multitask.queue6  queueingTime:vector  ETV
attr interpolationmode  none
attr title  "queueing time at dequeue, vector"
attr unit  s
vector 9  Multitask.allocateQ2  queueingTime:vector  ETV
attr interpolationmode  none
attr title  "queueing time at dequeue, vector"
attr unit  s
vector 0  Multitask.sink  lifeTime:vector  ETV
attr interpolationmode  none
attr title  "lifetime of arrived jobs, vector"
attr unit  s
vector 1  Multitask.sink  totalQueueingTime:vector  ETV
attr interpolationmode  none
attr title  "the total time spent in queues by arrived jobs, vector"
attr unit  s
vector 4  Multitask.sink  queuesVisited:vector  ETV
attr interpolationmode  none
attr title  "the total number of queues visited by arrived jobs, vector"
vector 3  Multitask.sink  totalServiceTime:vector  ETV
attr interpolationmode  none
attr title  "the total time spent  by arrived jobs, vector"
attr unit  s
vector 2  Multitask.sink  totalDelayTime:vector  ETV
attr interpolationmode  none
attr title  "the total time spent in delay nodes by arrived jobs, vector"
attr unit  s
vector 5  Multitask.sink  delaysVisited:vector  ETV
attr interpolationmode  none
attr title  "the total number of delays visited by arrived jobs, vector"
vector 6  Multitask.sink  generation:vector  ETV
attr interpolationmode  none
attr title  "the generation of the arrived jobs, vector"
0	13153	1541.209576919228	1541.2095769192
0	13179	1543.719051997249	1543.7190519972
0	13249	1552.98760691666	1552.9876069167
0	13272	1561.490792369996	1561.49079237
0	13278	1561.516742874909	1561.5167428749
0	13314	1563.788471276669	1563.7884712767
0	13345	1564.926183566466	1564.9261835665
0	13356	1565.082389820089	1565.0823898201
0	13372	1566.154533909671	1566.1545339097
0	13418	1570.346856169818	1570.3468561698
0	13429	1570.75178555288	1570.7517855529
0	13470	1577.532825460297	1577.5328254603
0	13586	1593.613462400476	1593.6134624005
0	13607	1595.181581273532	1595.1815812735
0	13663	1606.865720674229	1606.8657206742
0	13704	1615.157507249355	1615.1575072494
0	13715	1615.518996720544	1615.5189967205
0	13741	1622.222210848762	1622.2222108488
0	13772	1626.553544114092	1626.5535441141
0	13833	1633.922143264296	1633.9221432643
0	13863	1643.784768166081	1643.7847681661
0	13870	1643.917759593015	1643.917759593
0	13942	1656.367801005168	1656.3678010052
0	13954	1660.911227289778	1660.9112272898
0	13991	1667.029199713833	1667.0291997138
1	13153	1541.209576919228	1284.9274294864
1	13179	1543.719051997249	1283.2253503871
1	13249	1552.98760691666	1296.1186164362
1	13272	1561.490792369996	1278.974000257
1	13278	1561.516742874909	1266.2753164272
1	13314	1563.788471276669	1234.9615815909
1	13345	1564.926183566466	1327.6855617707
1	13356	1565.082389820089	1224.4038291943
1	13372	1566.154533909671	1174.7087390642
1	13418	1570.346856169818	1279.4900869638
1	13429	1570.75178555288	1283.4259416292
1	13470	1577.532825460297	1253.7009020321
1	13586	1593.613462400476	1265.3419729209
1	13607	1595.181581273532	1300.5890453223
1	13663	1606.865720674229	1255.9619650886
1	13704	1615.157507249355	1256.3126347127
1	13715	1615.518996720544	1279.0807045668
1	13741	1622.222210848762	1265.133015455
1	13772	1626.553544114092	1275.5403717883
1	13833	1633.922143264296	1295.4116415424
1	13863	1643.784768166081	1283.4600754018
1	13870	1643.917759593015	1313.6281507382
1	13942	1656.367801005168	1366.7173917139
1	13954	1660.911227289778	1206.5633661226
1	13991	1667.029199713833	1333.0976756549
2	13153	1541.209576919228	0
2	13179	1543.719051997249	0
2	13249	1552.98760691666	0
2	13272	1561.490792369996	0
2	13278	1561.516742874909	0
2	13314	1563.788471276669	0
2	13345	1564.926183566466	0
2	13356	1565.082389820089	0
2	13372	1566.154533909671	0
2	13418	1570.346856169818	0
2	13429	1570.75178555288	0
2	13470	1577.532825460297	0
2	13586	1593.613462400476	0
2	13607	1595.181581273532	0
2	13663	1606.865720674229	0
2	13704	1615.157507249355	0
2	13715	1615.518996720544	0
2	13741	1622.222210848762	0
2	13772	1626.553544114092	0
2	13833	1633.922143264296	0
2	13863	1643.784768166081	0
2	13870	1643.917759593015	0
2	13942	1656.367801005168	0
2	13954	1660.911227289778	0
2	13991	1667.029199713833	0
3	13153	1541.209576919228	128.83641419804
3	13179	1543.719051997249	110.47145705214
3	13249	1552.98760691666	148.40483645438
3	13272	1561.490792369996	138.59688510763
3	13278	1561.516742874909	119.04854165766
3	13314	1563.788471276669	157.09705509886
3	13345	1564.926183566466	148.0788274045
3	13356	1565.082389820089	141.55811434872
3	13372	1566.154533909671	180.0343078905
3	13418	1570.346856169818	94.211028882022
3	13429	1570.75178555288	131.35774927818
3	13470	1577.532825460297	176.05498806593
3	13586	1593.613462400476	145.43478662618
3	13607	1595.181581273532	86.008352607107
3	13663	1606.865720674229	94.491398644303
3	13704	1615.157507249355	124.74438767373
3	13715	1615.518996720544	103.31962841353
3	13741	1622.222210848762	122.97236309614
3	13772	1626.553544114092	117.50307214263
3	13833	1633.922143264296	135.97895464544
3	13863	1643.784768166081	138.28908893454
3	13870	1643.917759593015	140.99650083631
3	13942	1656.367801005168	103.76343300479
3	13954	1660.911227289778	109.07321692531
3	13991	1667.029199713833	90.651297283209
4	13153	1541.209576919228	40
4	13179	1543.719051997249	36
4	13249	1552.98760691666	56
4	13272	1561.490792369996	56
4	13278	1561.516742874909	58
4	13314	1563.788471276669	63
4	13345	1564.926183566466	70
4	13356	1565.082389820089	62
4	13372	1566.154533909671	73
4	13418	1570.346856169818	41
4	13429	1570.75178555288	64
4	13470	1577.532825460297	71
4	13586	1593.613462400476	51
4	13607	1595.181581273532	36
4	13663	1606.865720674229	30
4	13704	1615.157507249355	45
4	13715	1615.518996720544	57
4	13741	1622.222210848762	57
4	13772	1626.553544114092	49
4	13833	1633.922143264296	54
4	13863	1643.784768166081	47
4	13870	1643.917759593015	60
4	13942	1656.367801005168	43
4	13954	1660.911227289778	39
4	13991	1667.029199713833	42
5	13153	1541.209576919228	0
5	13179	1543.719051997249	0
5	13249	1552.98760691666	0
5	13272	1561.490792369996	0
5	13278	1561.516742874909	0
5	13314	1563.788471276669	0
5	13345	1564.926183566466	0
5	13356	1565.082389820089	0
5	13372	1566.154533909671	0
5	13418	1570.346856169818	0
5	13429	1570.75178555288	0
5	13470	1577.532825460297	0
5	13586	1593.613462400476	0
5	13607	1595.181581273532	0
5	13663	1606.865720674229	0
5	13704	1615.157507249355	0
5	13715	1615.518996720544	0
5	13741	1622.222210848762	0
5	13772	1626.553544114092	0
5	13833	1633.922143264296	0
5	13863	1643.784768166081	0
5	13870	1643.917759593015	0
5	13942	1656.367801005168	0
5	13954	1660.911227289778	0
5	13991	1667.029199713833	0
6	13153	1541.209576919228	0
6	13179	1543.719051997249	0
6	13249	1552.98760691666	0
6	13272	1561.490792369996	0
6	13278	1561.516742874909	0
6	13314	1563.788471276669	0
6	13345	1564.926183566466	0
6	13356	1565.082389820089	0
6	13372	1566.154533909671	0
6	13418	1570.346856169818	0
6	13429	1570.75178555288	0
6	13470	1577.532825460297	0
6	13586	1593.613462400476	0
6	13607	1595.181581273532	0
6	13663	1606.865720674229	0
6	13704	1615.157507249355	0
6	13715	1615.518996720544	0
6	13741	1622.222210848762	0
6	13772	1626.553544114092	0
6	13833	1633.922143264296	0
6	13863	1643.784768166081	0
6	13870	1643.917759593015	0
6	13942	1656.367801005168	0
6	13954	1660.911227289778	0
6	13991	1667.029199713833	0
8	0	0	0
8	88	0.982210574368	1
8	98	1.220174470413	0
8	105	1.293442614907	1
8	107	1.342005490104	2
8	114	1.570868247462	3
8	116	2.322383824688	4
8	123	2.848704311316	5
8	135	3.437654082967	6
8	150	4.258938526558	5
8	162	5.745856748113	6
8	164	5.812656820545	7
8	166	6.036215162078	8
8	168	6.10338865595	9
8	170	7.150402973576	10
8	177	8.002823908926	11
8	186	8.423697832305	12
8	201	9.087042036132	13
8	213	10.473795431636	14
8	218	10.585194737651	13
8	255	11.868654962147	14
8	257	12.315078452418	15
8	277	13.164348174147	14
8	299	14.855091982688	15
8	306	15.943981654051	16
8	318	17.521270794835	15
8	325	17.553750092249	14
8	337	18.156814418361	13
8	349	18.322630288508	14
8	375	19.457872139646	15
8	382	22.344308462594	16
8	384	22.661865422635	17
8	391	24.880491154056	18
8	406	26.710057627463	17
8	421	29.046834362158	16
8	426	29.125271685901	15
8	431	29.195093731939	14
8	435	29.35145130393	15
8	445	32.739109799887	16
8	465	34.892805994067	15
8	487	35.383950543143	16
8	491	35.83664843871	17
8	509	37.889593612909	16
8	516	38.754665178406	17
8	528	39.644279117341	18
8	545	48.114638530416	17
8	555	48.54347209575	18
8	582	49.973659954288	17
8	615	56.676655516202	16
8	624	57.705605490559	17
8	627	57.940694768967	16
8	654	60.046615439001	17
8	656	61.313678343605	18
8	676	64.372926766204	17
8	691	67.822768516775	16
8	708	73.603160390802	17
8	710	73.799232304642	18
8	715	73.934743376944	17
8	727	74.507238042944	18
8	774	77.764768554926	17
8	789	79.109470198015	18
8	811	82.50758844597	19
8	816	85.653592229802	18
8	821	85.666902149843	17
8	841	86.099263805263	16
8	848	88.180899108259	17
8	850	88.307838802456	18
8	852	89.306168393279	19
8	867	90.168316912548	18
8	902	102.077849958844	17
8	912	102.300533749917	16
8	922	102.548858649303	15
8	929	103.787433852628	16
8	934	104.609984758098	15
8	941	106.249703191833	16
8	960	109.51887149817	17
8	973	110.862723577179	16
8	998	113.40351166024	15
8	1023	115.335632206484	14
8	1037	116.737014827217	15
8	1040	116.754182758596	14
8	1062	121.759412730592	15
8	1071	122.402042993921	16
8	1076	122.867496167026	17
8	1080	126.554350528497	18
8	1098	127.717285189177	17
8	1108	128.16687012749	16
8	1115	131.033303776266	17
8	1134	135.34946377054	18
8	1144	137.558049179014	19
8	1174	139.734921792915	18
8	1178	139.756200022736	19
8	1208	141.046432548083	20
8	1243	143.949879466003	19
8	1253	145.911324508026	18
8	1270	147.556993608834	19
8	1305	149.515926078525	18
8	1310	149.555710950117	17
8	1325	149.899427683426	16
8	1337	151.657107284629	17
8	1342	152.745880290453	16
8	1349	153.75154294499	17
8	1351	154.882996413756	18
8	1353	155.239134198833	19
8	1383	159.636303275425	18
8	1387	159.64199062929	19
8	1410	160.833897776273	18
8	1450	162.135083362291	17
8	1455	162.200609133088	16
8	1490	163.600009177515	15
8	1525	165.070859280551	14
8	1542	166.720421121336	15
8	1554	168.882059412385	16
8	1559	169.696294994788	15
8	1564	169.713401669643	14
8	1593	171.483461280211	15
8	1613	174.149666368609	16
8	1615	174.584921542222	17
8	1625	179.857273580661	16
8	1630	179.982580681767	15
8	1682	183.23647358312	16
8	1689	184.400604914766	17
8	1694	184.527096378333	16
8	1699	184.564427540454	15
8	1709	184.802478129606	14
8	1773	190.518618039772	15
8	1778	190.806992157464	16
8	1788	191.158301758758	15
8	1795	191.310461236546	16
8	1802	191.821568382225	17
8	1804	195.448993165929	18
8	1854	203.171586444435	17
8	1861	204.147779749895	18
8	1863	204.156656238087	19
8	1868	204.797531276753	18
8	1873	205.008569689897	17
8	1883	205.799383114885	16
8	1893	208.019543771592	15
8	1903	208.264190525428	14
8	1925	209.521660427876	15
8	1927	210.031497422863	16
8	1934	210.364457305849	17
8	1941	213.310645142209	18
8	1946	215.353628960905	17
8	1958	216.348039515011	18
8	1985	221.432075441175	19
8	1987	222.119753279121	20
8	2012	228.027526113883	19
8	2024	228.998472151696	18
8	2028	229.074938684425	19
8	2039	229.77230849596	18
8	2094	233.39538005953	17
8	2099	233.762048270265	16
8	2126	235.660194425586	17
8	2131	236.473938110597	16
8	2141	236.601373084065	15
8	2161	237.53104959299	14
8	2180	239.411437399984	15
8	2200	241.65862692593	16
8	2230	243.79153975677	15
8	2247	247.069870863494	16
8	2252	250.075051273539	15
8	2259	250.775459755322	16
8	2261	251.077483337432	17
8	2276	253.092202695619	16
8	2313	255.704375082422	17
8	2335	256.866342707985	18
8	2342	260.12633177112	19
8	2357	262.062261289295	18
8	2367	262.315300139181	17
8	2379	263.446677506429	18
8	2411	269.508664665739	17
8	2418	269.656751874582	18
8	2421	269.665847714667	17
8	2431	269.73790456985	16
8	2438	271.460682999499	17
8	2445	274.170286203506	18
8	2465	276.377764584749	17
8	2470	276.530540138122	16
8	2485	277.817322824099	15
8	2500	278.597434055802	14
8	2524	280.001140857388	15
8	2529	280.143107850662	16
8	2566	283.361935115846	17
8	2571	283.829258540864	16
8	2581	283.85646433528	15
8	2588	283.995791299021	16
8	2595	284.249819759173	17
8	2630	287.771906437891	16
8	2635	287.856029651612	15
8	2642	288.669641047211	16
8	2644	290.032907280367	17
8	2646	290.371464601964	18
8	2668	298.97581077583	17
8	2688	300.755202815597	18
8	2692	301.253006595557	19
8	2722	302.201884211268	20
8	2827	325.526192444565	19
8	2832	325.620328435236	18
8	2854	327.83392285312	19
8	2934	337.130603800653	18
8	2939	337.165634057179	17
8	2996	341.927850316869	18
8	3008	344.908530673993	19
8	3045	348.803938527766	20
8	3062	352.400683502744	19
8	3067	352.482983932679	18
8	3085	353.185012205801	17
8	3090	353.225840421876	16
8	3097	353.38615331274	17
8	3103	353.493710375319	18
8	3109	353.603329859891	17
8	3136	354.602379341001	18
8	3166	358.644060862788	17
8	3183	361.189810757461	18
8	3210	366.083707629545	19
8	3252	369.442573928042	20
8	3257	371.133804336182	19
8	3264	371.554142943268	20
8	3279	377.036847004672	19
8	3289	377.361353735581	18
8	3296	377.587281769495	19
8	3316	380.987424547653	18
8	3321	381.141723932005	17
8	3351	387.800062778977	16
8	3381	389.529547976674	15
8	3391	390.611324338753	14
8	3408	391.058782046312	13
8	3423	392.002959593439	14
8	3428	392.566908716154	13
8	3445	394.443160583365	14
8	3455	395.9529683283	13
8	3462	397.375989641539	14
8	3469	398.433683796934	15
8	3471	398.998204107656	16
8	3473	399.278206608132	17
8	3478	399.910578762291	16
8	3490	400.332795247529	15
8	3508	400.877748824421	14
8	3522	401.309878509674	15
8	3549	403.069392751802	16
8	3562	403.868267365986	15
8	3574	404.852955854333	16
8	3586	406.941757685214	17
8	3591	409.396089489213	16
8	3596	409.423279418012	15
8	3613	409.816639857619	16
8	3623	410.455254915461	15
8	3630	410.645714701043	16
8	3635	411.293906449479	15
8	3652	412.174495795369	16
8	3662	413.506718179311	15
8	3666	413.546768229345	16
8	3679	414.115566816309	15
8	3696	417.485012102751	16
8	3698	418.159157095425	17
8	3713	420.472535858667	16
8	3720	421.1319475459	17
8	3747	425.376744717524	18
8	3766	427.002989402372	19
8	3784	430.20573908346	18
8	3806	432.220076682892	19
8	3831	434.873229883867	18
8	3836	434.895936522741	17
8	3866	436.096331122348	16
8	3911	440.489149076003	15
8	3936	441.51955150297	14
8	3948	443.368188181012	15
8	3950	444.205452387796	16
8	3970	446.659779192845	15
8	3975	446.751054157822	14
8	4005	448.732140083039	13
8	4010	448.835080667629	12
8	4016	448.887637739394	13
8	4019	449.019895370709	12
8	4032	449.651730318398	11
8	4044	450.339975191681	12
8	4046	451.03036187717	13
8	4060	452.740676026971	14
8	4062	452.77495647043	15
8	4075	455.043483476487	14
8	4084	455.733584959672	15
8	4094	457.690711449799	16
8	4096	458.283704044707	17
8	4098	458.362411458691	18
8	4103	458.839091399629	17
8	4110	458.978988919935	18
8	4112	459.282987985072	19
8	4132	462.278892987184	18
8	4142	462.759939720968	17
8	4147	462.765511874743	16
8	4164	464.238400328524	17
8	4166	465.454167584538	18
8	4186	470.934234918951	17
8	4203	472.032732969975	18
8	4205	474.684871242334	19
8	4210	476.492834959479	18
8	4222	477.450242081466	19
8	4232	483.754457220314	18
8	4237	483.861178354856	17
8	4242	483.942273513612	16
8	4247	484.057649301613	15
8	4251	484.08047731586	16
8	4261	485.334343793	17
8	4263	487.814173583187	18
8	4268	491.791106063735	17
8	4280	497.042253815946	18
8	4325	502.958844400091	17
8	4355	504.352079628921	16
8	4367	504.743133201755	15
8	4385	505.131880474113	14
8	4407	508.834142122096	15
8	4409	509.714173863862	16
8	4411	510.154567868022	17
8	4413	513.225666518422	18
8	4420	516.795661487312	19
8	4440	529.230398678736	18
8	4487	532.712372180053	19
8	4497	533.594031447128	18
8	4514	536.40079464834	19
8	4524	540.469034814763	18
8	4579	544.826290692495	17
8	4586	545.076428073882	18
8	4591	548.405661867334	17
8	4598	549.563702307741	18
8	4605	553.854466466082	19
8	4612	555.416229360892	20
8	4617	556.440648014799	19
8	4647	560.341957344231	18
8	4687	561.589328086356	17
8	4704	562.160849583002	16
8	4709	562.190398806138	15
8	4726	562.498185496954	16
8	4732	562.584934296474	17
8	4743	562.910911712479	16
8	4756	563.281656745663	15
8	4771	564.030979790439	14
8	4796	566.840445911711	13
8	4806	567.306263280543	12
8	4836	569.055571387901	11
8	4848	569.32609148793	10
8	4866	570.29117102718	9
8	4871	570.324312000985	8
8	4885	571.00617332871	9
8	4898	571.729973117639	8
8	4905	571.862393180312	9
8	4919	572.332505566469	10
8	4924	572.707740027025	11
8	4938	574.72290710501	12
8	4948	575.439083179287	13
8	4970	577.655243383031	14
8	4977	578.540428342805	15
8	5002	582.983911525178	14
8	5014	583.664531643073	15
8	5026	587.021756368764	16
8	5038	589.182146679726	17
8	5045	590.96959447601	18
8	5050	594.017992250021	17
8	5059	596.172060443368	18
8	5062	596.185262469775	17
8	5067	596.397383263634	16
8	5079	599.252875539934	17
8	5083	599.410407303484	18
8	5116	600.478002996474	17
8	5121	600.611437798092	16
8	5126	600.658417503621	15
8	5133	601.103964445644	16
8	5138	601.234304592102	15
8	5143	601.255486987855	14
8	5155	602.815504446744	15
8	5165	604.284928608323	14
8	5187	605.64086091687	15
8	5189	609.134531931494	16
8	5204	610.566227617245	15
8	5209	610.785507605795	14
8	5243	613.5606793194	15
8	5246	613.621470564899	14
8	5266	616.21602703006	13
8	5283	619.108586860051	14
8	5290	620.727491637248	15
8	5292	620.813826700555	16
8	5294	620.957840665571	17
8	5299	621.110662653926	16
8	5316	622.550187309034	17
8	5356	629.500791993421	16
8	5363	629.731417092014	15
8	5386	630.512318584943	14
8	5392	630.534659072226	15
8	5397	630.625861446508	16
8	5421	631.475380930366	15
8	5447	631.773346914721	14
8	5452	631.885549254368	13
8	5462	632.015194204223	14
8	5479	634.748074861577	15
8	5504	636.083042976771	14
8	5511	636.184833283718	13
8	5526	640.123876905668	14
8	5531	640.658958761186	13
8	5536	640.739860487276	12
8	5545	640.992252387342	13
8	5560	641.864001073369	14
8	5564	642.35207162978	15
8	5574	642.713707642898	16
8	5584	643.651211706041	15
8	5606	644.170847966274	14
8	5616	644.458557582614	13
8	5621	644.484816819069	12
8	5644	645.438440318455	11
8	5649	645.492728367053	10
8	5656	645.993591356893	11
8	5658	646.169008674411	12
8	5660	646.409896452507	13
8	5662	648.906826059457	14
8	5684	651.053324578198	15
8	5701	651.648295287898	16
8	5703	652.736306896143	17
8	5715	655.621718362062	18
8	5717	658.083910106484	19
8	5719	661.857119275955	20
8	5744	667.37843912252	19
8	5784	670.307505654927	18
8	5794	670.548248068141	17
8	5801	670.967833406967	18
8	5813	673.130548475337	19
8	5818	674.148946716452	18
8	5830	674.963208296816	19
8	5847	677.833874937865	20
8	5852	678.005654859782	19
8	5857	678.036633362773	18
8	5887	683.700915653914	17
8	5897	683.878464233992	16
8	5906	684.149213373879	17
8	5914	684.582437143243	16
8	5930	685.644745025487	17
8	5936	685.776574931898	16
8	5940	685.937152787595	17
8	5943	685.979816763371	16
8	5948	686.205416020951	15
8	5968	688.196178008142	14
8	5973	688.269685885688	13
8	5980	688.644735230613	14
8	5982	688.659271414629	15
8	5984	688.955607691186	16
8	5986	689.100340296722	17
8	5988	690.861975395592	18
8	6005	694.680534794223	19
8	6022	696.175739292682	18
8	6032	696.516205913815	17
8	6042	696.842337019896	16
8	6046	697.011248033662	17
8	6059	697.737135445536	18
8	6069	699.133261316778	17
8	6078	699.354440518271	18
8	6081	699.501656136632	17
8	6086	699.523174525901	16
8	6098	702.184664828858	17
8	6125	704.010448762439	18
8	6135	706.086242435187	17
8	6157	708.042858618551	18
8	6159	710.106263357136	19
8	6181	710.95981552499	18
8	6191	711.094537400438	17
8	6221	711.898448503344	16
8	6226	711.9344484182	15
8	6249	712.699164105251	14
8	6269	715.736060035297	13
8	6278	715.931092734351	14
8	6293	716.643030207415	15
8	6298	717.733323895846	14
8	6325	721.100799863212	13
8	6360	724.238600701765	14
8	6367	725.18576685993	15
8	6394	727.471817352183	16
8	6399	730.067728199669	15
8	6416	730.814168043951	16
8	6428	735.642271920623	17
8	6445	737.633772327259	18
8	6465	738.946628472738	17
8	6485	739.633990568707	16
8	6504	740.095498005357	17
8	6529	742.276509278062	18
8	6539	743.73601803324	17
8	6544	743.742583154277	16
8	6579	747.348449898788	15
8	6586	747.803597723554	16
8	6603	749.843411462825	17
8	6610	751.701399420728	18
8	6659	757.298642610563	19
8	6672	757.693448914171	18
8	6677	757.770282599331	17
8	6682	757.772074017963	16
8	6699	760.201637994715	17
8	6704	761.045342824235	16
8	6716	762.34016069059	17
8	6723	763.552514995551	18
8	6730	763.813988102475	17
8	6755	766.711991880239	18
8	6762	768.147186194288	19
8	6782	771.644308782369	18
8	6797	772.652440999687	17
8	6802	772.664529057397	16
8	6817	772.937002328164	15
8	6824	773.193514997417	16
8	6856	775.316914829695	17
8	6873	778.804858738704	18
8	6903	782.86559178239	17
8	6948	786.64989301436	16
8	6955	787.019886912003	17
8	6957	787.626589015423	18
8	6974	790.048697142336	17
8	6984	790.243541381818	16
8	7001	790.757035461891	17
8	7014	791.288417481368	16
8	7036	792.831326408012	17
8	7041	792.976231317149	16
8	7046	793.147216432332	15
8	7056	793.647464827596	14
8	7063	793.89738191229	15
8	7065	795.010927997013	16
8	7072	795.754933452769	17
8	7074	796.71252680316	18
8	7076	797.859634527014	19
8	7081	798.264586534371	18
8	7086	798.643725055432	17
8	7136	803.555849093492	16
8	7153	804.167784112079	17
8	7160	805.572947245117	18
8	7172	806.344989562926	17
8	7202	808.554198478599	18
8	7206	810.068556726482	19
8	7219	813.183052827304	18
8	7224	813.219968799605	17
8	7239	814.91684968371	16
8	7246	815.394353519788	17
8	7248	815.568251218342	18
8	7253	815.960432617423	17
8	7275	819.814128468529	18
8	7280	820.050269470856	17
8	7310	820.755994881758	16
8	7325	820.996995431626	15
8	7352	822.302349163541	14
8	7357	822.38571646758	13
8	7372	823.706389292955	14
8	7374	823.774913106776	15
8	7394	824.661265580127	14
8	7416	828.269859003107	15
8	7423	828.647227001998	16
8	7425	828.79258739332	17
8	7430	829.122727532715	16
8	7439	829.472953036969	15
8	7470	831.344655121841	14
8	7495	832.318229646992	15
8	7503	832.439435570278	14
8	7519	832.85966088398	15
8	7544	834.002025818593	14
8	7551	835.175569496818	15
8	7553	835.21733161165	16
8	7568	840.170875228922	15
8	7573	840.357078710455	14
8	7577	840.463688989678	15
8	7590	840.845272303298	14
8	7610	842.005677534878	13
8	7620	842.106710743461	12
8	7632	844.349700067708	13
8	7634	844.866999837288	14
8	7641	845.014692629036	15
8	7646	845.141572492242	14
8	7658	848.518467153497	15
8	7662	849.825964668382	16
8	7680	850.544515904682	15
8	7692	851.684053702997	16
8	7719	853.747185571043	17
8	7729	855.212193249804	16
8	7744	855.681641807782	15
8	7756	857.975398704186	16
8	7766	859.833881634794	15
8	7771	859.882636853145	14
8	7796	860.583993257857	13
8	7803	860.606425157339	14
8	7817	861.508071395616	15
8	7822	861.604578335613	16
8	7832	862.434147872397	15
8	7874	867.267869297006	16
8	7878	867.36800761161	17
8	7893	868.076261235135	18
8	7903	868.569357305168	17
8	7908	868.69174549199	16
8	7918	869.289050760508	15
8	7925	869.502561526364	16
8	7927	871.711616328932	17
8	7944	877.204881917243	18
8	7951	878.158870817756	19
8	7953	879.05742339885	20
8	7985	880.134574523722	19
8	7990	880.175146930026	18
8	7998	880.29283334077	17
8	8005	880.624087811391	18
8	8007	880.833307240467	19
8	8012	881.060308234847	18
8	8022	885.693590414003	17
8	8032	888.980871506259	16
8	8037	889.191262349626	15
8	8042	889.271969641192	14
8	8064	891.782963202213	15
8	8066	893.089035385253	16
8	8068	893.558671327171	17
8	8070	894.835833865006	18
8	8092	897.901384193213	19
8	8117	900.028964696328	18
8	8122	900.094853704414	17
8	8162	904.267673903433	16
8	8174	905.486591709351	17
8	8176	905.487201149696	18
8	8188	906.355497272117	19
8	8190	907.378823728792	20
8	8200	909.105020322102	19
8	8245	913.400183956019	18
8	8257	914.173773407226	19
8	8267	915.073732690154	18
8	8272	915.187503653604	17
8	8279	915.931413147793	18
8	8306	922.573618758131	19
8	8311	923.028163602247	18
8	8316	923.089778968765	17
8	8326	923.890651584254	16
8	8345	925.056478491935	17
8	8360	926.841463093188	18
8	8380	929.03130243783	17
8	8400	929.876553009302	16
8	8430	932.432779692876	15
8	8444	933.010273515864	16
8	8464	934.449731166725	17
8	8469	934.707990136368	16
8	8476	934.79685542834	17
8	8478	935.12497973555	18
8	8493	939.463617038545	17
8	8515	940.264928930092	18
8	8550	944.848519758949	17
8	8557	945.607330643753	18
8	8564	947.249288982715	19
8	8566	947.510524848302	20
8	8616	958.31010637159	19
8	8651	962.567929093355	18
8	8686	964.631025940386	17
8	8691	964.666498448235	16
8	8696	964.828380831706	15
8	8701	964.928644374516	14
8	8706	965.045390361082	13
8	8713	965.741942363389	14
8	8723	968.058338411414	13
8	8750	969.563333627748	14
8	8752	970.746095854841	15
8	8754	971.324103225722	16
8	8756	972.267823140008	17
8	8758	972.52445726514	18
8	8783	975.574483000943	17
8	8833	977.569502024877	16
8	8845	979.298690567576	17
8	8857	983.63276065824	18
8	8862	984.253647081831	17
8	8869	985.137133579849	18
8	8886	986.839922250674	19
8	8901	987.176490304865	18
8	8941	989.455453198456	17
8	8945	989.458150111144	18
8	8975	993.964740144022	19
8	8985	995.115726400623	18
8	9040	997.055037409087	17
8	9052	997.704441036851	18
8	9054	997.773290554597	19
8	9081	998.983026130135	18
8	9091	999.327087820218	17
8	9119	1000.911349195689	16
8	9136	1003.332462904494	17
8	9143	1005.693403313819	18
8	9150	1008.942496791542	19
8	9160	1010.407783721199	18
8	9177	1011.116120028158	17
8	9182	1011.143381752149	16
8	9187	1011.203570643294	15
8	9200	1011.665257763675	14
8	9212	1012.269763373786	13
8	9234	1013.375313193404	14
8	9259	1015.771799670168	15
8	9261	1015.861422977581	16
8	9273	1017.364724240002	17
8	9308	1021.346996686367	16
8	9317	1021.545988199198	17
8	9342	1025.898786897873	18
8	9344	1027.600747077807	19
8	9371	1033.190819883765	20
8	9391	1036.782756388207	19
8	9426	1041.763567388504	18
8	9441	1043.641891821286	17
8	9456	1043.998284266355	16
8	9463	1045.923603276514	17
8	9485	1051.076789118344	16
8	9500	1051.716103023738	15
8	9540	1053.726303718529	14
8	9545	1053.752733215079	13
8	9558	1054.51266678397	12
8	9575	1054.771417056812	13
8	9595	1056.046245170738	12
8	9610	1056.405097974466	11
8	9647	1057.707342753579	12
8	9657	1059.054052852639	11
8	9669	1060.801085967297	12
8	9679	1063.25416048133	11
8	9704	1064.69221434385	10
8	9711	1065.07499398222	11
8	9728	1066.253412460821	12
8	9732	1066.887574378129	13
8	9734	1066.92636770492	14
8	9744	1069.874642689564	15
8	9746	1071.318407429585	16
8	9751	1071.646400206532	15
8	9788	1077.007258476301	16
8	9812	1077.443976700463	15
8	9820	1077.622925696089	14
8	9831	1077.911000930088	15
8	9847	1078.312893771989	14
8	9852	1078.352033881393	13
8	9857	1078.369796383156	12
8	9871	1078.753261325528	13
8	9876	1078.954312490037	14
8	9888	1079.152817201646	15
8	9891	1079.161286089942	14
8	9896	1079.286989392376	13
8	9908	1081.294774525224	14
8	9925	1083.592557419322	15
8	9932	1085.237540367528	16
8	9962	1088.352013942593	15
8	9969	1088.870451525958	16
8	9971	1089.617407914235	17
8	9983	1094.776805634573	18
8	10018	1099.090537278469	17
8	10025	1101.12601090328	18
8	10067	1106.089273835631	19
8	10077	1107.689778039623	18
8	10097	1109.293002894619	17
8	10112	1112.948730478592	16
8	10117	1112.960914319577	15
8	10135	1113.960271921699	16
8	10166	1114.88436933853	15
8	10181	1115.302421293563	16
8	10188	1115.77002571775	17
8	10208	1117.878221682029	16
8	10215	1117.908357150111	17
8	10217	1118.388553571616	18
8	10224	1118.932485422344	19
8	10234	1127.993634811872	18
8	10239	1128.064977525568	17
8	10264	1128.821434451849	16
8	10278	1129.444074383728	17
8	10283	1130.303638352898	18
8	10290	1131.267897517902	19