version 2
run Multitask30-15-20150106-11:37:58-5496
attr configname Multitask30
attr datetime 20150106-11:37:58
attr experiment Multitask30
attr inifile omnetpp.ini
attr iterationvars ""
attr iterationvars2 $repetition=15
attr measurement ""
attr network Multitask
attr processid 5496
attr repetition 15
attr replication #15
attr resultdir results
attr runnumber 15
attr seedset 15

vector 8  Multitask.allocateQ2  queueLength:vector  ETV
attr interpolationmode  sample-hold
attr title  "queue length, vector"
vector 11  Multitask.queue3  queueLength:vector  ETV
attr interpolationmode  sample-hold
attr title  "queue length, vector"
vector 13  Multitask.queue3  busy:vector  ETV
attr interpolationmode  sample-hold
attr title  "server busy state, vector"
vector 15  Multitask.queue4  queueLength:vector  ETV
attr interpolationmode  sample-hold
attr title  "queue length, vector"
vector 17  Multitask.queue4  busy:vector  ETV
attr interpolationmode  sample-hold
attr title  "server busy state, vector"
vector 19  Multitask.queue5  queueLength:vector  ETV
attr interpolationmode  sample-hold
attr title  "queue length, vector"
vector 21  Multitask.queue5  busy:vector  ETV
attr interpolationmode  sample-hold
attr title  "server busy state, vector"
vector 23  Multitask.queue6  queueLength:vector  ETV
attr interpolationmode  sample-hold
attr title  "queue length, vector"
vector 25  Multitask.queue6  busy:vector  ETV
attr interpolationmode  sample-hold
attr title  "server busy state, vector"
vector 27  Multitask.queue7  queueLength:vector  ETV
attr interpolationmode  sample-hold
attr title  "queue length, vector"
vector 29  Multitask.queue7  busy:vector  ETV
attr interpolationmode  sample-hold
attr title  "server busy state, vector"
vector 30  Multitask.resourceCPU  amount:vector  ETV
attr interpolationmode  sample-hold
attr title  "available resource, vector"
vector 12  Multitask.queue3  queueingTime:vector  ETV
attr interpolationmode  none
attr title  "queueing time at dequeue, vector"
attr unit  s
vector 28  Multitask.queue7  queueingTime:vector  ETV
attr interpolationmode  none
attr title  "queueing time at dequeue, vector"
attr unit  s
vector 20  Multitask.queue5  queueingTime:vector  ETV
attr interpolationmode  none
attr title  "queueing time at dequeue, vector"
attr unit  s
vector 24  Multitask.queue6  queueingTime:vector  ETV
attr interpolationmode  none
attr title  "queueing time at dequeue, vector"
attr unit  s
vector 16  Multitask.queue4  queueingTime:vector  ETV
attr interpolationmode  none
attr title  "queueing time at dequeue, vector"
attr unit  s
vector 9  Multitask.allocateQ2  queueingTime:vector  ETV
attr interpolationmode  none
attr title  "queueing time at dequeue, vector"
attr unit  s
vector 0  Multitask.sink  lifeTime:vector  ETV
attr interpolationmode  none
attr title  "lifetime of arrived jobs, vector"
attr unit  s
vector 1  Multitask.sink  totalQueueingTime:vector  ETV
attr interpolationmode  none
attr title  "the total time spent in queues by arrived jobs, vector"
attr unit  s
vector 4  Multitask.sink  queuesVisited:vector  ETV
attr interpolationmode  none
attr title  "the total number of queues visited by arrived jobs, vector"
vector 3  Multitask.sink  totalServiceTime:vector  ETV
attr interpolationmode  none
attr title  "the total time spent  by arrived jobs, vector"
attr unit  s
vector 2  Multitask.sink  totalDelayTime:vector  ETV
attr interpolationmode  none
attr title  "the total time spent in delay nodes by arrived jobs, vector"
attr unit  s
vector 5  Multitask.sink  delaysVisited:vector  ETV
attr interpolationmode  none
attr title  "the total number of delays visited by arrived jobs, vector"
vector 6  Multitask.sink  generation:vector  ETV
attr interpolationmode  none
attr title  "the generation of the arrived jobs, vector"
0	12565	1537.085758143627	1537.0857581436
0	12618	1544.635880063011	1544.635880063
0	12639	1545.886546170336	1545.8865461703
0	12655	1546.305799582188	1546.3057995822
0	12666	1547.11189206008	1547.1118920601
0	12682	1547.764874824801	1547.7648748248
0	12688	1547.786752288785	1547.7867522888
0	12734	1551.126797412179	1551.1267974122
0	12787	1555.345393910888	1555.3453939109
0	12793	1555.426705277404	1555.4267052774
0	12804	1556.402831387481	1556.4028313875
0	12835	1559.072915687252	1559.0729156873
0	12841	1559.083756195086	1559.0837561951
0	12872	1566.114068731175	1566.1140687312
0	12883	1566.424457037404	1566.4244570374
0	12894	1566.97241495734	1566.9724149573
0	12900	1567.089488700787	1567.0894887008
0	12936	1569.539633508286	1569.5396335083
0	12947	1571.216432154698	1571.2164321547
0	12968	1573.333071104196	1573.3330711042
0	12978	1573.491956906582	1573.4919569066
0	12995	1574.417105132468	1574.4171051325
0	13047	1581.373645370191	1581.3736453702
0	13086	1584.024942992882	1584.0249429929
0	13106	1587.414839477253	1587.4148394773
1	12565	1537.085758143627	1268.2275211401
1	12618	1544.635880063011	1256.883928805
1	12639	1545.886546170336	1286.0844477307
1	12655	1546.305799582188	1230.7400139034
1	12666	1547.11189206008	1206.700280793
1	12682	1547.764874824801	1196.3484718185
1	12688	1547.786752288785	1255.7199849516
1	12734	1551.126797412179	1293.5473443055
1	12787	1555.345393910888	1247.2695632409
1	12793	1555.426705277404	1234.5917975648
1	12804	1556.402831387481	1188.9308115321
1	12835	1559.072915687252	1239.3912545861
1	12841	1559.083756195086	1283.3841531659
1	12872	1566.114068731175	1260.7105769089
1	12883	1566.424457037404	1275.7503780712
1	12894	1566.97241495734	1313.998475001
1	12900	1567.089488700787	1218.0538921697
1	12936	1569.539633508286	1237.1865836931
1	12947	1571.216432154698	1244.2448757064
1	12968	1573.333071104196	1275.5655899801
1	12978	1573.491956906582	1252.0543893894
1	12995	1574.417105132468	1213.1948033021
1	13047	1581.373645370191	1302.4366098751
1	13086	1584.024942992882	1194.9589703978
1	13106	1587.414839477253	1210.6295987978
2	12565	1537.085758143627	0
2	12618	1544.635880063011	0
2	12639	1545.886546170336	0
2	12655	1546.305799582188	0
2	12666	1547.11189206008	0
2	12682	1547.764874824801	0
2	12688	1547.786752288785	0
2	12734	1551.126797412179	0
2	12787	1555.345393910888	0
2	12793	1555.426705277404	0
2	12804	1556.402831387481	0
2	12835	1559.072915687252	0
2	12841	1559.083756195086	0
2	12872	1566.114068731175	0
2	12883	1566.424457037404	0
2	12894	1566.97241495734	0
2	12900	1567.089488700787	0
2	12936	1569.539633508286	0
2	12947	1571.216432154698	0
2	12968	1573.333071104196	0
2	12978	1573.491956906582	0
2	12995	1574.417105132468	0
2	13047	1581.373645370191	0
2	13086	1584.024942992882	0
2	13106	1587.414839477253	0
3	12565	1537.085758143627	59.290864994464
3	12618	1544.635880063011	96.500012928725
3	12639	1545.886546170336	104.91878742048
3	12655	1546.305799582188	146.65705614432
3	12666	1547.11189206008	129.82261609325
3	12682	1547.764874824801	106.03837084877
3	12688	1547.786752288785	102.10701091465
3	12734	1551.126797412179	82.782094250956
3	12787	1555.345393910888	130.95660361273
3	12793	1555.426705277404	93.492144833684
3	12804	1556.402831387481	85.559839946215
3	12835	1559.072915687252	137.53793045098
3	12841	1559.083756195086	117.09679906147
3	12872	1566.114068731175	114.53111876432
3	12883	1566.424457037404	135.4021781717
3	12894	1566.97241495734	118.52013033842
3	12900	1567.089488700787	145.88228509362
3	12936	1569.539633508286	116.71842129812
3	12947	1571.216432154698	156.55883530189
3	12968	1573.333071104196	137.69190395246
3	12978	1573.491956906582	105.3442402329
3	12995	1574.417105132468	129.84783020208
3	13047	1581.373645370191	107.46094458655
3	13086	1584.024942992882	189.90308596503
3	13106	1587.414839477253	147.37391077983
4	12565	1537.085758143627	33
4	12618	1544.635880063011	38
4	12639	1545.886546170336	38
4	12655	1546.305799582188	55
4	12666	1547.11189206008	48
4	12682	1547.764874824801	35
4	12688	1547.786752288785	38
4	12734	1551.126797412179	31
4	12787	1555.345393910888	55
4	12793	1555.426705277404	47
4	12804	1556.402831387481	32
4	12835	1559.072915687252	36
4	12841	1559.083756195086	39
4	12872	1566.114068731175	41
4	12883	1566.424457037404	47
4	12894	1566.97241495734	44
4	12900	1567.089488700787	57
4	12936	1569.539633508286	58
4	12947	1571.216432154698	62
4	12968	1573.333071104196	56
4	12978	1573.491956906582	46
4	12995	1574.417105132468	55
4	13047	1581.373645370191	38
4	13086	1584.024942992882	56
4	13106	1587.414839477253	52
5	12565	1537.085758143627	0
5	12618	1544.635880063011	0
5	12639	1545.886546170336	0
5	12655	1546.305799582188	0
5	12666	1547.11189206008	0
5	12682	1547.764874824801	0
5	12688	1547.786752288785	0
5	12734	1551.126797412179	0
5	12787	1555.345393910888	0
5	12793	1555.426705277404	0
5	12804	1556.402831387481	0
5	12835	1559.072915687252	0
5	12841	1559.083756195086	0
5	12872	1566.114068731175	0
5	12883	1566.424457037404	0
5	12894	1566.97241495734	0
5	12900	1567.089488700787	0
5	12936	1569.539633508286	0
5	12947	1571.216432154698	0
5	12968	1573.333071104196	0
5	12978	1573.491956906582	0
5	12995	1574.417105132468	0
5	13047	1581.373645370191	0
5	13086	1584.024942992882	0
5	13106	1587.414839477253	0
6	12565	1537.085758143627	0
6	12618	1544.635880063011	0
6	12639	1545.886546170336	0
6	12655	1546.305799582188	0
6	12666	1547.11189206008	0
6	12682	1547.764874824801	0
6	12688	1547.786752288785	0
6	12734	1551.126797412179	0
6	12787	1555.345393910888	0
6	12793	1555.426705277404	0
6	12804	1556.402831387481	0
6	12835	1559.072915687252	0
6	12841	1559.083756195086	0
6	12872	1566.114068731175	0
6	12883	1566.424457037404	0
6	12894	1566.97241495734	0
6	12900	1567.089488700787	0
6	12936	1569.539633508286	0
6	12947	1571.216432154698	0
6	12968	1573.333071104196	0
6	12978	1573.491956906582	0
6	12995	1574.417105132468	0
6	13047	1581.373645370191	0
6	13086	1584.024942992882	0
6	13106	1587.414839477253	0
8	0	0	0
8	105	2.383953405883	1
8	107	2.875474246905	2
8	111	3.067247052213	3
8	113	3.096193827692	4
8	117	3.221367747866	5
8	120	3.307023291211	4
8	137	3.630873994965	5
8	142	3.651664853895	6
8	160	4.486938191178	7
8	168	4.739212383907	6
8	173	4.788710946395	5
8	184	5.069029942549	4
8	194	5.330759289323	3
8	199	5.360561608304	2
8	226	5.897641951158	3
8	233	6.971897897852	4
8	248	7.281829287297	3
8	255	7.550230727865	4
8	272	8.949084634811	5
8	281	9.80130076408	6
8	286	9.951163044422	7
8	291	9.978966264466	6
8	298	10.099794547438	7
8	305	11.676393458796	8
8	307	12.650459944387	9
8	309	12.726982156834	10
8	321	15.53309938343	11
8	323	15.696362163123	12
8	340	16.797555047336	13
8	342	17.071156670841	14
8	344	17.276478594797	15
8	346	18.892688397397	16
8	353	20.283823353531	17
8	355	20.590856942637	18
8	372	21.660581582179	17
8	376	21.677042691932	18
8	379	21.683066910612	17
8	402	23.365874249445	16
8	419	24.965327710577	17
8	421	26.12414930512	18
8	448	33.327942151722	19
8	458	36.653987727264	18
8	493	38.287804064666	17
8	518	39.401879228106	16
8	525	40.172792885876	17
8	535	44.329936816951	16
8	552	45.486706069401	17
8	557	45.735987799853	16
8	564	45.945260406716	17
8	569	46.624157788425	16
8	576	48.127686520495	17
8	578	48.875152489729	18
8	580	49.05975993959	19
8	605	56.691828827228	18
8	640	61.215244952073	17
8	655	62.739184855533	16
8	665	62.997927013221	15
8	674	63.257763449129	16
8	677	63.367703654359	15
8	689	64.974058936496	16
8	701	68.936503915925	17
8	703	70.256405901237	18
8	713	71.815621014293	17
8	733	74.104193482196	16
8	760	74.892456649644	15
8	783	75.865979943408	14
8	790	75.941885177263	15
8	792	76.595401116553	16
8	799	77.835276501363	17
8	806	78.634178495138	18
8	825	79.902234955383	19
8	828	79.977139011321	18
8	853	84.640016162643	17
8	863	85.932913480394	16
8	870	86.084446330138	15
8	878	86.151046410993	14
8	885	86.173632722694	13
8	925	88.637880069025	14
8	927	89.541853893872	15
8	942	91.71877642883	14
8	962	95.427205144045	13
8	974	95.644595572535	12
8	984	95.845578066674	11
8	1001	96.580231007144	12
8	1015	96.985295830156	13
8	1022	97.261883490692	14
8	1050	98.508333626438	15
8	1070	102.012707458775	14
8	1080	102.081711869506	13
8	1085	102.173953328989	12
8	1092	104.824199714287	13
8	1094	106.048298713173	14
8	1099	107.526165752091	13
8	1109	107.900166687344	12
8	1128	109.886966226278	13
8	1141	110.13608877564	12
8	1146	110.255717461818	11
8	1151	110.452062691129	10
8	1158	111.088576051074	11
8	1165	111.678649571268	12
8	1172	111.781244552034	13
8	1177	112.905442913106	12
8	1184	113.157255654284	13
8	1186	113.224044752718	14
8	1203	114.459226823946	15
8	1208	114.783541602193	14
8	1220	115.636142073645	15
8	1237	117.863420677944	16
8	1244	118.350006211271	17
8	1251	121.161691557214	18
8	1280	124.256800663185	17
8	1356	133.739308293571	16
8	1388	137.171459216199	17
8	1415	140.527911203561	18
8	1474	147.908013015549	19
8	1482	150.516985654445	18
8	1489	150.712136411245	19
8	1514	153.514560991791	18
8	1531	154.023705082854	19
8	1536	158.049639194348	18
8	1543	161.048367752271	19
8	1573	167.593472387378	18
8	1593	172.042463101856	17
8	1605	172.464249643677	18
8	1607	172.729305400118	19
8	1612	174.643145182165	18
8	1629	185.345621002717	19
8	1644	188.730057104737	18
8	1669	190.880091271243	17
8	1689	191.713475336459	16
8	1696	192.905131710026	17
8	1701	194.84714898931	16
8	1708	196.288502394669	17
8	1710	196.574400663103	18
8	1719	197.239706981979	19
8	1724	202.040839074943	20
8	1744	209.880482618035	19
8	1751	214.1667614034	20
8	1858	233.367804059498	19
8	1863	233.419916835886	18
8	1876	234.807026207393	17
8	1896	235.061808051595	16
8	1928	235.966583482934	17
8	1933	236.067107133916	16
8	1948	236.816983949412	15
8	1953	236.818886165321	14
8	1963	238.384962035416	13
8	1975	238.844790860932	14
8	1982	239.411297410131	15
8	1984	239.622550582966	16
8	1989	239.771483584772	15
8	2024	243.236137114532	14
8	2034	243.56277965642	13
8	2044	243.998993686901	12
8	2049	244.026097928912	11
8	2056	244.320863522598	12
8	2058	244.340318394532	13
8	2060	244.488230166311	14
8	2065	244.82883835986	13
8	2077	245.234228147463	14
8	2079	246.179991771285	15
8	2086	248.574377853661	16
8	2103	249.357007993291	17
8	2123	251.075717715512	16
8	2127	251.102396382025	17
8	2145	252.714516287974	16
8	2160	253.415169681305	15
8	2165	253.436380897914	14
8	2170	253.508568822383	13
8	2174	253.649629893417	14
8	2189	255.713264918735	15
8	2191	256.634289519749	16
8	2198	258.683609877467	17
8	2200	258.851481889303	18
8	2212	259.693098736268	19
8	2219	259.814527956074	20
8	2229	261.567976029617	19
8	2236	263.711825034767	20
8	2253	267.88307858535	19
8	2258	267.952468809685	18
8	2272	268.301062081724	19
8	2275	268.344027240316	18
8	2280	268.389382376986	17
8	2287	268.499452795289	16
8	2303	268.875360864957	15
8	2311	268.993642019949	16
8	2314	269.058819743784	15
8	2326	269.365645240923	14
8	2337	269.680449072085	13
8	2349	269.847400507455	14
8	2357	270.01230871931	13
8	2377	270.838691433493	12
8	2413	272.279510920955	13
8	2428	272.697567351866	14
8	2436	272.752041227468	13
8	2458	273.310811510985	14
8	2460	274.336673429913	15
8	2467	274.979157711931	16
8	2469	276.034630906646	17
8	2476	277.371118881266	18
8	2481	277.695775937474	17
8	2491	278.165670287985	16
8	2498	278.411823622315	15
8	2513	279.083019151478	16
8	2515	279.122569533951	17
8	2517	279.377135986037	18
8	2522	280.025212662182	17
8	2528	280.09690837513	18
8	2564	281.289674721658	17
8	2596	286.18397585305	18
8	2616	292.987261324417	17
8	2623	293.201888570833	18
8	2633	293.659221607286	17
8	2650	294.800400291793	18
8	2665	300.343527073475	17
8	2670	300.354540735591	16
8	2677	300.617405706178	17
8	2679	305.60203718891	18
8	2686	307.097643354444	19
8	2703	312.20882708635	18
8	2728	316.172380235106	19
8	2733	325.995726596949	18
8	2740	326.669321922058	19
8	2742	327.635967551908	20
8	2752	329.989288225492	19
8	2817	345.100686023444	18
8	2847	347.317915504984	17
8	2856	347.809321212181	18
8	2866	349.822794559068	19
8	2881	350.936361370026	18
8	2996	360.549233287232	17
8	3021	362.038716699753	16
8	3033	365.158864543729	17
8	3035	367.480830782005	18
8	3040	369.630154763112	17
8	3045	369.729305922302	16
8	3064	371.160216621001	17
8	3087	379.65371409311	16
8	3112	380.355796887553	15
8	3123	380.710901229851	16
8	3131	380.989708485405	17
8	3133	383.156899561018	18
8	3155	385.362869672733	19
8	3187	389.516179620187	20
8	3194	392.716162978051	19
8	3207	392.929042476224	18
8	3224	398.324376440671	19
8	3249	402.437576419699	18
8	3254	402.482445086413	17
8	3266	404.731892461626	18
8	3278	408.39079238889	19
8	3280	409.209541300026	20
8	3295	411.126390745071	19
8	3305	411.441943659153	18
8	3310	411.487858576051	17
8	3330	414.867251217668	16
8	3367	417.893060906578	17
8	3432	423.653971948115	16
8	3452	424.286709177634	15
8	3469	426.202055094522	16
8	3483	426.803901160039	17
8	3503	430.294999647814	18
8	3508	433.665671544476	17
8	3530	434.098876660165	16
8	3538	434.18197718992	15
8	3545	434.468102472539	16
8	3547	434.793110456921	17
8	3559	435.154681592746	16
8	3637	441.820507485852	15
8	3644	441.853441093914	16
8	3659	442.701340698856	15
8	3666	443.069282905064	16
8	3681	443.644306442823	15
8	3698	444.356839067794	16
8	3703	444.519686963703	15
8	3707	444.712735248531	16
8	3710	444.812536217228	15
8	3714	444.939991644986	16
8	3739	450.39910608086	17
8	3746	452.469617120333	18
8	3751	453.102162315509	17
8	3788	457.909820025344	18
8	3798	462.206122586196	17
8	3805	462.92790945146	18
8	3815	464.873067608629	17
8	3827	466.013938192181	18
8	3832	467.024681286088	17
8	3842	468.535996545068	16
8	3867	469.6490461646	15
8	3879	471.575768230937	16
8	3881	472.110222821106	17
8	3883	472.192607001196	18
8	3900	473.392410629919	19
8	3902	476.392387434074	20
8	3922	482.56769926496	19
8	3927	482.617519250896	18
8	3952	484.774577608949	17
8	3957	484.845733155127	16
8	3974	488.984053302348	17
8	3984	490.454168075716	16
8	3991	491.008558526936	17
8	4003	494.125977867804	18
8	4008	495.091355478896	17
8	4018	495.281837370423	16
8	4025	495.865486976965	17
8	4027	497.008041637733	18
8	4029	498.931131915434	19
8	4064	502.254003684653	18
8	4086	506.01989227904	19
8	4116	509.939132439737	18
8	4135	510.734616855682	17
8	4145	511.094147575876	16
8	4150	511.181877728222	15
8	4163	511.374860285908	14
8	4168	511.56470740677	13
8	4178	512.111816091475	14
8	4185	513.257542136319	15
8	4187	513.736075165614	16
8	4194	514.451378895892	17
8	4206	517.885399827564	18
8	4208	519.155985759015	19
8	4238	528.801825868148	18
8	4243	528.852932568801	17
8	4248	528.878632106761	16
8	4253	528.903395987967	15
8	4258	529.188715245691	14
8	4263	529.217034607434	13
8	4270	529.876033396699	14
8	4312	537.151551564215	15
8	4319	537.952784259747	16
8	4351	540.977805699623	17
8	4353	541.111101651237	18
8	4378	544.987900350945	17
8	4395	546.198284321266	18
8	4410	549.647271233532	17
8	4432	552.475829136266	18
8	4494	564.493392210979	19
8	4539	568.950188173724	18
8	4546	569.969804112678	19
8	4553	571.436116989431	20
8	4558	573.086968721114	19
8	4570	576.382589531237	18
8	4635	580.669006850237	19
8	4647	582.728303705303	18
8	4652	582.769789386895	17
8	4680	584.514369614031	16
8	4685	584.931529785569	15
8	4692	586.558971407715	16
8	4702	588.725351517361	15
8	4709	589.462181041265	16
8	4716	590.883347142662	17
8	4718	591.15672546835	18
8	4720	591.551996217534	19
8	4726	594.69279782479	20
8	4729	594.787340261129	19
8	4752	596.171556728371	18
8	4762	597.116739044447	17
8	4777	598.720714071519	16
8	4787	598.790433618439	15
8	4827	603.517975150021	14
8	4844	604.618240034025	15
8	4851	607.295592955443	14
8	4866	608.576906242484	15
8	4868	609.184801690928	16
8	4873	610.767030963178	15
8	4880	611.334431333261	16
8	4887	613.768542325592	17
8	4889	614.474887478181	18
8	4991	628.193850534261	19
8	5021	629.361961574195	18
8	5031	630.461425469801	17
8	5038	631.70270510289	18
8	5043	633.166824595904	17
8	5050	633.601670389757	18
8	5055	633.762881221386	17
8	5060	633.971494735391	16
8	5134	639.09754672627	17
8	5136	639.537575918892	18
8	5144	640.276512289199	17
8	5149	640.289960075095	16
8	5156	640.334864592793	17
8	5191	647.862780970389	16
8	5198	648.932800640886	17
8	5203	649.3354273709	16
8	5212	649.842508071974	17
8	5215	650.014844597846	16
8	5227	651.428053423781	17
8	5252	653.340058965162	16
8	5256	653.468384304501	17
8	5266	654.465297303868	18
8	5278	657.067942649353	19
8	5298	659.2170503045	18
8	5305	662.629439728381	19
8	5320	666.045721514642	18
8	5350	667.959568662108	17
8	5370	670.139412403358	16
8	5375	670.179397327522	15
8	5382	672.890968199431	16
8	5394	675.774435081835	17
8	5418	678.524453493775	18
8	5433	679.599899229561	19
8	5463	683.93201920737	18
8	5468	683.936101402193	17
8	5488	684.609082147628	16
8	5505	685.987952253467	17
8	5509	686.456990165147	18
8	5513	686.630762456092	19
8	5516	686.633865207856	18
8	5531	687.158493994496	17
8	5544	687.640271671291	16
8	5559	688.488408276179	15
8	5575	689.493106787684	16
8	5593	691.150542028402	17
8	5595	692.766908339476	18
8	5620	699.59087838193	17
8	5625	699.740279748145	16
8	5637	700.327474065637	17
8	5644	701.693295657733	18
8	5646	704.443828826751	19
8	5661	706.014285959427	18
8	5673	707.059304035029	19
8	5680	709.276875923512	18
8	5713	712.691891874327	17
8	5733	713.815468841396	16
8	5750	714.671305990789	17
8	5757	717.816443874394	18
8	5769	721.213433423171	19
8	5774	721.409036528649	18
8	5804	731.291434767147	17
8	5809	731.333673335012	16
8	5826	733.272806432397	17
8	5833	734.369228436792	18
8	5853	737.493696193196	17
8	5858	737.572623805814	16
8	5878	738.504782530165	15
8	5885	739.387435084468	16
8	5902	744.193829186406	17
8	5917	746.766720628747	16
8	5949	749.218487170706	15
8	5971	750.451502037596	16
8	5974	750.460200434978	15
8	5996	751.502028875271	16
8	5998	751.807557537501	17
8	6008	752.561206996832	16
8	6035	755.758801732617	17
8	6037	756.553317901342	18
8	6042	759.758916639906	17
8	6067	762.496003180725	16
8	6077	763.61452692672	15
8	6092	765.160402492892	14
8	6104	767.534891934027	15
8	6106	769.105554124092	16
8	6108	771.615241674756	17
8	6115	772.922159148537	18
8	6130	777.031260181491	17
8	6142	778.409560933951	18
8	6149	780.924783690041	19
8	6151	783.291234783804	20
8	6186	789.236678615041	19
8	6203	793.060022049855	20
8	6218	794.200700861406	19
8	6223	794.284703664161	18
8	6235	794.705985488394	19
8	6237	796.263519413463	20
8	6242	799.127353904478	19
8	6257	799.829979571336	18
8	6262	800.005484898738	17
8	6302	801.606054932943	16
8	6322	802.300872989078	15
8	6334	804.624722482555	16
8	6338	807.492730755889	17
8	6351	808.699984380613	16
8	6383	810.842762551384	17
8	6393	811.463304655574	16
8	6400	812.383969099723	17
8	6430	817.156723093343	16
8	6435	817.164745907953	15
8	6440	817.284664087669	14
8	6457	818.108097896328	15
8	6459	818.223392811894	16
8	6471	819.220379287646	17
8	6478	823.52869175088	18
8	6483	826.651488016257	17
8	6487	826.751345208051	18
8	6497	830.272299246583	19
8	6532	833.331202771122	18
8	6537	833.354771690666	17
8	6559	833.755887985677	16
8	6581	834.425224601551	17
8	6601	836.993901038413	18
8	6603	837.012748767524	19
8	6613	841.515217948443	18
8	6633	842.746875331859	17
8	6643	842.930984243444	16
8	6688	846.149876133967	15
8	6697	846.296118304697	16
8	6700	846.425475974961	15
8	6710	846.640766547124	14
8	6719	847.961637049771	15
8	6762	849.825956022671	14
8	6804	851.069653275902	13
8	6832	851.731603156867	12
8	6844	852.007360432302	13
8	6858	852.649567313135	14
8	6873	853.400427728698	15
8	6878	854.826824656286	14
8	6885	857.651807401665	15
8	6910	861.406805709596	14
8	6922	861.770794444727	13
8	6937	862.089811741171	14
8	6939	863.308916699735	15
8	6941	863.533606164652	16
8	6948	866.33862984169	17
8	6953	868.434779437638	16
8	6960	871.234573742781	17
8	6987	879.357833452802	18
8	7009	882.119134688912	19
8	7016	882.542047946866	20
8	7041	883.937072302364	19
8	7058	890.691411174028	20
8	7100	894.303949243055	19
8	7123	894.82153588091	18
8	7130	895.232105666925	19
8	7150	898.713268623021	18
8	7187	902.103950972286	19
8	7201	910.147572657282	20
8	7219	912.728129329578	19
8	7244	917.259580068396	18
8	7248	917.372204174323	19
8	7251	917.410830502279	18
8	7263	918.982276575458	19
8	7265	920.043102172061	20
8	7280	927.549410883864	19
8	7289	928.811442462707	20
8	7292	928.82237433957	19
8	7302	930.024054405892	18
8	7312	930.254515710411	17
8	7329	930.701582158521	16
8	7334	930.75283011538	15
8	7341	931.049869875943	16
8	7376	936.684669423233	17
8	7391	942.695460310741	16
8	7396	942.855769612794	15
8	7413	943.180608159139	16
8	7415	943.804506614631	17
8	7417	949.792620958031	18
8	7429	951.105670902457	19
8	7434	951.804389416356	18
8	7444	952.129744318867	17
8	7451	952.658686324121	18
8	7456	954.513804095113	17
8	7468	959.8748377676	18
8	7475	960.040226745806	19
8	7500	963.976580927674	18
8	7510	964.334023118034	17
8	7520	964.431703682546	16
8	7525	964.573514771824	15
8	7530	964.663750690033	14
8	7547	967.387713506279	15
8	7569	969.834204692771	16
8	7571	972.070522928528	17
8	7591	977.132480413915	16
8	7601	977.64637756477	15
8	7606	977.902614956094	14
8	7618	978.728193392966	15
8	7645	983.25754403281	16
8	7657	985.954039613262	17
8	7659	988.990501554498	18
8	7661	989.890225600313	19
8	7663	990.446240832703	20
8	7673	994.371831217061	19
8	7678	994.498859143249	18
8	7713	999.727814266487	17
8	7723	1000.609405500024	16
8	7743	1001.361936219076	15
8	7748	1001.365822230536	14
8	7755	1003.662730348243	15
8	7777	1005.689092401229	16
8	7779	1006.476148142936	17
8	7781	1007.382885832946	18
8	7783	1008.345374681258	19
8	7808	1021.409858999089	18
8	7813	1021.446364961313	17
8	7822	1021.552056118476	18
8	7842	1023.679990971199	19
8	7897	1029.258545236502	18
8	7907	1029.789905585758	17
8	7939	1031.801181937796	18
8	7951	1035.285767850212	19
8	7968	1037.698132910446	20
8	7978	1045.176081605675	19
8	8070	1057.908295827191	20
8	8080	1061.926938359468	19
8	8087	1062.192765317084	18
8	8102	1064.459897172508	19
8	8114	1070.000564856178	20
8	8119	1070.138238836998	19
8	8149	1072.426398208031	18
8	8169	1076.463081279063	17
8	8181	1076.826211335951	18
8	8188	1077.156633580686	17
8	8208	1078.406541697561	18
8	8220	1083.100630466443	19
8	8222	1084.107696263627	20
8	8242	1086.156660893578	19
8	8257	1089.974733311973	18
8	8264	1093.625099904674	19
8	8269	1095.237664082041	18
8	8284	1096.238799874604	17
8	8316	1100.304670584174	18
8	8321	1100.557063800305	17
8	8348	1104.781056686559	18
8	8370	1109.3219821631	19
8	8372	1111.266193408451	20
8	8392	1119.391556063299	19
8	8462	1128.735045219501	18
8	8492	1129.83882493583	17
8	8511	1132.547124996811	18
8	8519	1132.721287425817	17
8	8528	1133.130400958576	18
8	8546	1134.605604077938	17
8	8556	1134.673599786619	16
8	8563	1135.55648107581	17
8	8565	1135.610601562916	18
8	8572	1137.367824036731	17
8	8585	1137.666731530439	16
8	8597	1139.547853850777	17
8	8607	1140.876431862514	16
8	8611	1141.098573667667	17
8	8614	1141.177487636124	16
8	8629	1141.668190395235	15
8	8639	1142.168070910468	14
8	8644	1142.2505021143	13
8	8654	1142.452661629003	12
8	8661	1143.015236394287	13
8	8663	1143.302101287132	14
8	8675	1143.977557169451	15
8	8677	1146.036649209185	16
8	8682	1146.725960680548	15
8	8697	1147.279079216558	14
8	8704	1148.400730355505	15
8	8709	1148.969737115728	14
8	8714	1148.989912693573	13
8	8729	1149.634554167504	12
8	8734	1149.669084600255	11
8	8746	1150.117883645711	10
8	8761	1151.256805470672	11
8	8765	1152.057006407378	12
8	8780	1152.995179070606	13
8	8787	1153.874670529133	14
8	8811	1155.388808288055	15
8	8813	1155.545745319448	16
8	8878	1158.816138586032	17
8	8880	1158.985427516215	18
8	8900	1159.935766897217	17
8	8905	1160.025391768746	16
8	8915	1160.456157038626	15
8	8947	1161.419953540213	16
8	8949	1162.132957881384	17
8	8951	1164.581371064284	18
8	8956	1166.407132556205	17
8	8976	1172.417699885886	16
8	8980	1172.640743157885	17
8	9020	1182.614026484735	16
8	9057	1187.633309604343	17
8	9060	1187.639215785849	16
8	9077	1188.43504629646	17
8	9092	1189.345230985726	16
8	9097	1189.46828196276	15
8	9109	1190.072223850263	14
8	9134	1192.755187552852	15
8	9141	1193.598135283932	16
8	9151	1194.334327963853	15
8	9156	1194.620109032579	14
8	9160	1194.808096719987	15
8	9165	1196.127208015405	16
8	9170	1197.143600753892	15
8	9177	1197.685843842675	16
8	9179	1200.705877673061	17
8	9209	1204.384943712306	16
8	9219	1204.781840521445	15
8	9224	1204.800393239388	14
8	9233	1205.03937886689	15
8	9251	1207.205367300339	14
8	9255	1207.221586963988	15
8	9288	1210.876814058621	14
8	9305	1212.358509527461	15
8	9310	1212.454309359847	14
8	9317	1212.614119521283	15
8	9324	1212.785975592392	16
8	9326	1214.78843496383	17
8	9328	1216.106292949702	18
8	9338	1216.690073108468	17
8	9348	1217.538711122006	16
8	9357	1218.208614756299	17
8	9359	1218.275885785026	18
8	9377	1220.808223671575	17
8	9399	1223.243035005923	18
8	9409	1225.138818970065	17
8	9420	1225.509077000094	18
8	9423	1225.661420915951	17
8	9441	1226.590775279969	16
8	9448	1227.128933797613	15
8	9456	1227.267390578833	14
8	9488	1228.484543825138	15
8	9495	1230.175229003746	16
8	9507	1232.107513880418	17
8	9532	1233.630309668733	16
8	9552	1234.551847539398	15
8	9562	1235.127335128293	14
8	9587	1236.488982140024	13
8	9609	1237.970265482914	14
8	9619	1238.993342217331	13
8	9624	1238.995345257871	12
8	9631	1239.481022087444	13
8	9636	1240.464619170676	12
8	9643	1240.479998245623	13
8	9680	1243.614913446985	14
8	9715	1248.492035022921	13
8	9722	1250.587356464216	14
8	9727	1251.613421778817	13
8	9737	1251.710976529186	12
8	9744	1252.927730638398	13
8	9758	1255.208252090696	14
8	9781	1257.916774627948	13
8	9788	1258.417967076096	14
8	9790	1259.055396256346	15
8	9792	1259.07990954104	16
8	9794	1259.381043070867	17
8	9798	1261.389251587764	18
8	9806	1261.530146365568	17
8	9816	1261.750422163122	16
8	9828	1263.720792241796	17
8	9833	1266.652557327978	16
8	9837	1266.84948230277	17
8	9842	1267.022187630385	16
8	9847	1267.123554808761	15
8	9870	1268.037463322849	14
8	9880	1268.205539991227	13
8	9887	1268.662503556464	14
8	9894	1270.717807477557	15
8	9944	1274.312386139709	14
8	9951	1274.568737049682	15
8	9953	1275.619979981052	16
8	9955	1275.706863720222	17
8	9974	1276.551203369137	18
8	10017	1281.524141939311	17
8	10027	1282.463426406524	16
8	10039	1284.470639798891	17
8	10061	1287.990013430181	16
8	10066	1288.049242835712	15
8	10070	1288.232749791759	16