version 2
run Multitask30-27-20150106-11:38:00-4284
attr configname Multitask30
attr datetime 20150106-11:38:00
attr experiment Multitask30
attr inifile omnetpp.ini
attr iterationvars ""
attr iterationvars2 $repetition=27
attr measurement ""
attr network Multitask
attr processid 4284
attr repetition 27
attr replication #27
attr resultdir results
attr runnumber 27
attr seedset 27

vector 8  Multitask.allocateQ2  queueLength:vector  ETV
attr interpolationmode  sample-hold
attr title  "queue length, vector"
vector 11  Multitask.queue3  queueLength:vector  ETV
attr interpolationmode  sample-hold
attr title  "queue length, vector"
vector 13  Multitask.queue3  busy:vector  ETV
attr interpolationmode  sample-hold
attr title  "server busy state, vector"
vector 15  Multitask.queue4  queueLength:vector  ETV
attr interpolationmode  sample-hold
attr title  "queue length, vector"
vector 17  Multitask.queue4  busy:vector  ETV
attr interpolationmode  sample-hold
attr title  "server busy state, vector"
vector 19  Multitask.queue5  queueLength:vector  ETV
attr interpolationmode  sample-hold
attr title  "queue length, vector"
vector 21  Multitask.queue5  busy:vector  ETV
attr interpolationmode  sample-hold
attr title  "server busy state, vector"
vector 23  Multitask.queue6  queueLength:vector  ETV
attr interpolationmode  sample-hold
attr title  "queue length, vector"
vector 25  Multitask.queue6  busy:vector  ETV
attr interpolationmode  sample-hold
attr title  "server busy state, vector"
vector 27  Multitask.queue7  queueLength:vector  ETV
attr interpolationmode  sample-hold
attr title  "queue length, vector"
vector 29  Multitask.queue7  busy:vector  ETV
attr interpolationmode  sample-hold
attr title  "server busy state, vector"
vector 30  Multitask.resourceCPU  amount:vector  ETV
attr interpolationmode  sample-hold
attr title  "available resource, vector"
vector 12  Multitask.queue3  queueingTime:vector  ETV
attr interpolationmode  none
attr title  "queueing time at dequeue, vector"
attr unit  s
vector 28  Multitask.queue7  queueingTime:vector  ETV
attr interpolationmode  none
attr title  "queueing time at dequeue, vector"
attr unit  s
vector 16  Multitask.queue4  queueingTime:vector  ETV
attr interpolationmode  none
attr title  "queueing time at dequeue, vector"
attr unit  s
vector 24  Multitask.queue6  queueingTime:vector  ETV
attr interpolationmode  none
attr title  "queueing time at dequeue, vector"
attr unit  s
vector 20  Multitask.queue5  queueingTime:vector  ETV
attr interpolationmode  none
attr title  "queueing time at dequeue, vector"
attr unit  s
vector 9  Multitask.allocateQ2  queueingTime:vector  ETV
attr interpolationmode  none
attr title  "queueing time at dequeue, vector"
attr unit  s
vector 0  Multitask.sink  lifeTime:vector  ETV
attr interpolationmode  none
attr title  "lifetime of arrived jobs, vector"
attr unit  s
vector 1  Multitask.sink  totalQueueingTime:vector  ETV
attr interpolationmode  none
attr title  "the total time spent in queues by arrived jobs, vector"
attr unit  s
vector 4  Multitask.sink  queuesVisited:vector  ETV
attr interpolationmode  none
attr title  "the total number of queues visited by arrived jobs, vector"
vector 3  Multitask.sink  totalServiceTime:vector  ETV
attr interpolationmode  none
attr title  "the total time spent  by arrived jobs, vector"
attr unit  s
vector 2  Multitask.sink  totalDelayTime:vector  ETV
attr interpolationmode  none
attr title  "the total time spent in delay nodes by arrived jobs, vector"
attr unit  s
vector 5  Multitask.sink  delaysVisited:vector  ETV
attr interpolationmode  none
attr title  "the total number of delays visited by arrived jobs, vector"
vector 6  Multitask.sink  generation:vector  ETV
attr interpolationmode  none
attr title  "the generation of the arrived jobs, vector"
0	13378	1584.049317806986	1584.049317807
0	13389	1584.426620162794	1584.4266201628
0	13395	1584.452960829945	1584.4529608299
0	13423	1588.149774597927	1588.1497745979
0	13453	1590.36656567446	1590.3665656745
0	13464	1592.11658727365	1592.1165872736
0	13485	1595.015276840343	1595.0152768403
0	13501	1605.299802353335	1605.2998023533
0	13517	1606.064793692074	1606.0647936921
0	13538	1609.573596342383	1609.5735963424
0	13584	1619.578740116429	1619.5787401164
0	13610	1625.937599538124	1625.9375995381
0	13646	1630.499113762684	1630.4991137627
0	13672	1632.549211246971	1632.549211247
0	13738	1642.816318641375	1642.8163186414
0	13754	1643.353567814422	1643.3535678144
0	13790	1652.367007640724	1652.3670076407
0	13811	1653.54926111472	1653.5492611147
0	13847	1656.534980888497	1656.5349808885
0	13893	1658.522374812401	1658.5223748124
0	13913	1660.62106556654	1660.6210655665
0	13930	1662.45154269584	1662.4515426958
0	13937	1672.822726487659	1672.8227264877
0	13959	1680.505593849229	1680.5055938492
0	14001	1692.719466112751	1692.7194661128
1	13378	1584.049317806986	1279.9958836782
1	13389	1584.426620162794	1209.7400015641
1	13395	1584.452960829945	1238.0908438171
1	13423	1588.149774597927	1233.8442880822
1	13453	1590.36656567446	1271.6591583138
1	13464	1592.11658727365	1208.9756880852
1	13485	1595.015276840343	1267.8122216486
1	13501	1605.299802353335	1282.9059200319
1	13517	1606.064793692074	1352.2253247014
1	13538	1609.573596342383	1192.1618769154
1	13584	1619.578740116429	1234.6885768003
1	13610	1625.937599538124	1266.2259848489
1	13646	1630.499113762684	1357.4548721082
1	13672	1632.549211246971	1357.4937276926
1	13738	1642.816318641375	1291.2749038299
1	13754	1643.353567814422	1325.9646270838
1	13790	1652.367007640724	1332.2217578134
1	13811	1653.54926111472	1283.9222816512
1	13847	1656.534980888497	1292.1044501077
1	13893	1658.522374812401	1282.7796821299
1	13913	1660.62106556654	1285.6320963537
1	13930	1662.45154269584	1269.1835568899
1	13937	1672.822726487659	1330.7035531183
1	13959	1680.505593849229	1277.5515817478
1	14001	1692.719466112751	1371.2879142307
2	13378	1584.049317806986	0
2	13389	1584.426620162794	0
2	13395	1584.452960829945	0
2	13423	1588.149774597927	0
2	13453	1590.36656567446	0
2	13464	1592.11658727365	0
2	13485	1595.015276840343	0
2	13501	1605.299802353335	0
2	13517	1606.064793692074	0
2	13538	1609.573596342383	0
2	13584	1619.578740116429	0
2	13610	1625.937599538124	0
2	13646	1630.499113762684	0
2	13672	1632.549211246971	0
2	13738	1642.816318641375	0
2	13754	1643.353567814422	0
2	13790	1652.367007640724	0
2	13811	1653.54926111472	0
2	13847	1656.534980888497	0
2	13893	1658.522374812401	0
2	13913	1660.62106556654	0
2	13930	1662.45154269584	0
2	13937	1672.822726487659	0
2	13959	1680.505593849229	0
2	14001	1692.719466112751	0
3	13378	1584.049317806986	145.37862894735
3	13389	1584.426620162794	127.66644611467
3	13395	1584.452960829945	181.63913956843
3	13423	1588.149774597927	123.290737504
3	13453	1590.36656567446	80.867845385085
3	13464	1592.11658727365	139.91216878467
3	13485	1595.015276840343	125.31343065292
3	13501	1605.299802353335	103.5104692942
3	13517	1606.064793692074	89.39501641324
3	13538	1609.573596342383	136.99465939299
3	13584	1619.578740116429	181.682376624
3	13610	1625.937599538124	81.576817919172
3	13646	1630.499113762684	155.60712285932
3	13672	1632.549211246971	84.256084705715
3	13738	1642.816318641375	189.54280406144
3	13754	1643.353567814422	79.72292843079
3	13790	1652.367007640724	177.08423253938
3	13811	1653.54926111472	75.95678836892
3	13847	1656.534980888497	136.32454344756
3	13893	1658.522374812401	124.09015384757
3	13913	1660.62106556654	124.34021866249
3	13930	1662.45154269584	191.60642965043
3	13937	1672.822726487659	82.382840282633
3	13959	1680.505593849229	143.59951209272
3	14001	1692.719466112751	98.593927947254
4	13378	1584.049317806986	72
4	13389	1584.426620162794	47
4	13395	1584.452960829945	57
4	13423	1588.149774597927	43
4	13453	1590.36656567446	43
4	13464	1592.11658727365	58
4	13485	1595.015276840343	47
4	13501	1605.299802353335	40
4	13517	1606.064793692074	47
4	13538	1609.573596342383	52
4	13584	1619.578740116429	62
4	13610	1625.937599538124	25
4	13646	1630.499113762684	82
4	13672	1632.549211246971	35
4	13738	1642.816318641375	63
4	13754	1643.353567814422	46
4	13790	1652.367007640724	64
4	13811	1653.54926111472	40
4	13847	1656.534980888497	43
4	13893	1658.522374812401	50
4	13913	1660.62106556654	49
4	13930	1662.45154269584	68
4	13937	1672.822726487659	41
4	13959	1680.505593849229	62
4	14001	1692.719466112751	41
5	13378	1584.049317806986	0
5	13389	1584.426620162794	0
5	13395	1584.452960829945	0
5	13423	1588.149774597927	0
5	13453	1590.36656567446	0
5	13464	1592.11658727365	0
5	13485	1595.015276840343	0
5	13501	1605.299802353335	0
5	13517	1606.064793692074	0
5	13538	1609.573596342383	0
5	13584	1619.578740116429	0
5	13610	1625.937599538124	0
5	13646	1630.499113762684	0
5	13672	1632.549211246971	0
5	13738	1642.816318641375	0
5	13754	1643.353567814422	0
5	13790	1652.367007640724	0
5	13811	1653.54926111472	0
5	13847	1656.534980888497	0
5	13893	1658.522374812401	0
5	13913	1660.62106556654	0
5	13930	1662.45154269584	0
5	13937	1672.822726487659	0
5	13959	1680.505593849229	0
5	14001	1692.719466112751	0
6	13378	1584.049317806986	0
6	13389	1584.426620162794	0
6	13395	1584.452960829945	0
6	13423	1588.149774597927	0
6	13453	1590.36656567446	0
6	13464	1592.11658727365	0
6	13485	1595.015276840343	0
6	13501	1605.299802353335	0
6	13517	1606.064793692074	0
6	13538	1609.573596342383	0
6	13584	1619.578740116429	0
6	13610	1625.937599538124	0
6	13646	1630.499113762684	0
6	13672	1632.549211246971	0
6	13738	1642.816318641375	0
6	13754	1643.353567814422	0
6	13790	1652.367007640724	0
6	13811	1653.54926111472	0
6	13847	1656.534980888497	0
6	13893	1658.522374812401	0
6	13913	1660.62106556654	0
6	13930	1662.45154269584	0
6	13937	1672.822726487659	0
6	13959	1680.505593849229	0
6	14001	1692.719466112751	0
8	0	0	0
8	141	6.554690141511	1
8	144	6.765404623898	0
8	170	9.456335420561	1
8	172	9.870208849314	2
8	174	9.995990530485	3
8	176	10.880977161756	4
8	181	13.16091621214	3
8	188	13.295257941754	4
8	190	13.298148518044	5
8	192	13.541278847977	6
8	194	13.833475759569	7
8	196	14.191808839825	8
8	203	16.851519033793	9
8	205	17.034796330427	10
8	212	17.148710786621	11
8	214	18.38658168185	12
8	216	19.520177553824	13
8	218	20.249775853141	14
8	220	21.082504785021	15
8	222	21.786120627679	16
8	224	22.367444267702	17
8	251	24.641686539048	18
8	256	25.730568694632	17
8	276	27.68547292685	16
8	293	28.797931309881	17
8	308	31.664867095399	16
8	320	32.348660475409	17
8	322	32.448134293035	18
8	342	34.603943678239	17
8	349	35.156480686841	18
8	354	35.226511112704	17
8	363	36.824820079957	18
8	366	36.841352407515	17
8	381	38.130145853401	16
8	388	38.719893761536	17
8	390	38.852170098948	18
8	395	40.27389063131	17
8	402	40.680204501523	16
8	435	44.799169169647	15
8	482	47.023160059317	16
8	492	47.80018059349	15
8	504	48.263251606429	14
8	523	48.917383724398	15
8	526	48.966313414265	14
8	531	49.018220612713	13
8	536	49.03495182344	12
8	546	49.326558643343	11
8	556	49.815044470921	12
8	558	50.032988962315	13
8	560	51.157641112558	14
8	562	53.013684446821	15
8	567	54.067313171145	14
8	572	54.120913854548	13
8	576	54.173112731195	14
8	578	54.206133875599	15
8	585	55.2765667694	16
8	593	55.424155310364	15
8	600	57.271953737475	16
8	607	58.238900009999	17
8	649	64.36601118278	18
8	666	67.699686005036	19
8	686	72.823116247929	18
8	693	74.559989242539	19
8	698	76.132873723546	18
8	715	80.780091804783	19
8	752	83.66535435042	20
8	777	88.444143669752	19
8	782	88.457616016551	18
8	822	93.024761961965	17
8	832	93.47514127836	16
8	836	93.476091050576	17
8	841	94.345104857532	18
8	843	94.498121737482	19
8	860	97.99378505061	20
8	900	111.195814211939	19
8	920	114.747820654094	18
8	930	115.081603677905	17
8	957	118.574879389606	18
8	967	119.645994508114	17
8	987	120.229129386121	16
8	994	121.46167594889	17
8	1008	123.074068687415	18
8	1013	124.365191248038	19
8	1043	129.503256388754	18
8	1053	130.045161398045	17
8	1105	140.737716467919	18
8	1145	153.372221301017	17
8	1150	153.396637589898	16
8	1170	154.002108331473	15
8	1180	154.247435041055	14
8	1187	154.496927959434	15
8	1189	154.732370327961	16
8	1191	155.656584376055	17
8	1206	157.153903793356	16
8	1218	158.352535431018	17
8	1230	158.67166330033	16
8	1240	158.790113583822	17
8	1257	164.850486731913	18
8	1264	165.460399561809	19
8	1268	165.508147477204	20
8	1276	166.921343119313	19
8	1283	168.228946139571	20
8	1298	173.895277949805	19
8	1307	174.766919978494	20
8	1320	176.275898626799	19
8	1325	176.405114303698	18
8	1350	180.424737458036	17
8	1355	180.490302191561	16
8	1367	181.593899936997	17
8	1412	183.716876405032	16
8	1434	184.619288831215	17
8	1446	185.04837179888	16
8	1521	189.217237850921	17
8	1546	190.530362597492	16
8	1553	191.887268749176	17
8	1568	196.980260621847	16
8	1573	197.10337635543	15
8	1588	197.537341264296	14
8	1600	199.545213616352	15
8	1602	201.188011953464	16
8	1617	202.284252556754	15
8	1627	202.438995015459	14
8	1644	203.086522483264	15
8	1649	204.462612704154	14
8	1658	204.921804603365	15
8	1671	206.323074977553	14
8	1678	206.483370603418	15
8	1680	206.713114516204	16
8	1682	207.065851597087	17
8	1697	212.692707186392	16
8	1704	213.784439487501	17
8	1706	214.172443174006	18
8	1713	217.035955354489	19
8	1740	220.655389862146	18
8	1745	220.697537411449	17
8	1750	220.749126451339	16
8	1755	220.751204682668	15
8	1770	221.107249575601	16
8	1777	221.360198422362	17
8	1787	221.576677986774	16
8	1802	222.008328892456	15
8	1814	222.272161594151	16
8	1828	223.605186158097	17
8	1851	228.430573792212	16
8	1890	230.555693359448	17
8	1913	232.963449558596	16
8	1925	233.763999696141	17
8	1927	235.612985834791	18
8	1934	236.982017626349	19
8	1939	237.717020364685	18
8	1974	242.215573195567	17
8	2001	251.408477315036	18
8	2003	251.618875699579	19
8	2013	253.133934429781	18
8	2018	253.137708262337	17
8	2023	253.195112772767	16
8	2030	253.581809047298	17
8	2050	255.644294101528	16
8	2057	257.357583622123	17
8	2062	257.761410714671	16
8	2069	258.202547425087	15
8	2082	258.406844685583	14
8	2094	258.637609381491	15
8	2121	259.585693561953	14
8	2139	259.975453321439	13
8	2154	260.765139241402	12
8	2161	261.142127970049	13
8	2171	262.633030863884	12
8	2183	264.577601698099	13
8	2185	265.498161549292	14
8	2192	272.538722442488	15
8	2237	275.879639592429	14
8	2274	277.512181507022	15
8	2276	277.529743103717	16
8	2303	280.849824368807	17
8	2305	286.748538150829	18
8	2310	290.176815473046	17
8	2320	290.319746269018	16
8	2345	292.977356982137	15
8	2357	295.150437130065	16
8	2359	297.078649290198	17
8	2379	302.774771737234	16
8	2394	303.659410960222	15
8	2404	304.024303818896	14
8	2408	304.058619722714	15
8	2416	304.195056388896	14
8	2431	305.06041172451	13
8	2465	307.72317651954	14
8	2473	308.077970262844	13
8	2480	308.339741857617	14
8	2485	308.470342703947	13
8	2492	309.625395004646	14
8	2504	313.848796490427	15
8	2518	315.217147409254	16
8	2538	319.115119815745	17
8	2558	320.957535318731	16
8	2563	321.127142617714	15
8	2570	321.902318586906	16
8	2587	324.22878919372	17
8	2589	324.575531848668	18
8	2594	325.077908361952	17
8	2599	325.299912658856	16
8	2609	325.526495528737	15
8	2621	328.050803670865	16
8	2653	331.028883757867	17
8	2670	334.787730834726	18
8	2672	334.879303088062	19
8	2687	336.52129337163	18
8	2709	339.050433836421	19
8	2719	339.467398219663	18
8	2739	340.764484344406	17
8	2749	341.3520569767	16
8	2756	341.78031656006	17
8	2758	342.858167873386	18
8	2823	346.612024548186	17
8	2845	347.782148077929	16
8	2852	348.171295538804	17
8	2860	348.498042695658	16
8	2869	348.752604077504	17
8	2882	349.076932518886	16
8	2892	350.047774286716	15
8	2896	350.365542096825	16
8	2929	351.696565740965	15
8	2946	354.389863437346	16
8	3003	357.154626767906	17
8	3030	363.016519651978	18
8	3039	364.377406917396	17
8	3047	364.623397739703	16
8	3057	365.729517865288	17
8	3061	366.743568329905	18
8	3094	371.713365195121	17
8	3134	375.637615114869	16
8	3156	377.71908775849	17
8	3191	380.044019741686	16
8	3206	381.459144028232	15
8	3215	381.936049239057	16
8	3217	382.013105809189	17
8	3220	382.153526810311	16
8	3230	382.270139017027	15
8	3250	383.452769117759	14
8	3260	384.561945731825	13
8	3277	385.387947675546	12
8	3290	385.625061470582	11
8	3302	386.003451121823	12
8	3332	387.715749096757	11
8	3364	390.500361134066	10
8	3379	390.705287468276	11
8	3386	390.971636289856	12
8	3398	392.627745508192	13
8	3448	398.299853493354	12
8	3465	400.152030148234	13
8	3467	400.441954479542	14
8	3479	401.675152280012	15
8	3481	402.173662486882	16
8	3488	404.216600826636	17
8	3493	406.090448169954	16
8	3525	413.878333172654	17
8	3527	414.702909928686	18
8	3544	418.891024369086	19
8	3556	423.027963197581	20
8	3561	423.980498948519	19
8	3598	424.816421075551	18
8	3621	425.591357607459	17
8	3648	426.846319140655	16
8	3661	427.083102947063	15
8	3666	427.148156143147	14
8	3683	427.768678687096	15
8	3685	427.77068601229	16
8	3690	428.157149632143	15
8	3725	431.032418923327	14
8	3734	431.249132827815	15
8	3744	431.43343505881	16
8	3761	432.274021912918	15
8	3766	432.290568522148	14
8	3771	432.387208150887	13
8	3783	432.656552044418	12
8	3798	433.402906581139	11
8	3856	435.349779111452	12
8	3863	435.554943507277	11
8	3873	435.703520192876	12
8	3885	435.983574264657	13
8	3912	439.033267638463	12
8	3917	439.073312774989	11
8	3923	439.173373982543	12
8	3952	440.052081925091	11
8	3981	440.760402143536	12
8	3984	440.797894630868	11
8	3991	440.946238676933	12
8	4008	441.68698516623	13
8	4020	442.879852306069	14
8	4022	447.189854142639	15
8	4024	447.989987374012	16
8	4026	449.085741358532	17
8	4036	453.276180374092	16
8	4041	453.285249510827	15
8	4053	453.684302880532	16
8	4065	456.629849719068	17
8	4072	458.165045834491	18
8	4074	458.188589545751	19
8	4084	477.982754430317	18
8	4096	478.481464160186	19
8	4106	480.759734192154	18
8	4128	482.450402245579	17
8	4141	482.66112471977	16
8	4148	482.788959207771	15
8	4156	483.068842695812	14
8	4163	485.793227625567	15
8	4188	487.839239155358	14
8	4220	489.551414713808	15
8	4237	490.832152446632	16
8	4239	490.89994235792	17
8	4244	491.461070960376	16
8	4256	492.053303760129	17
8	4270	492.615256205931	18
8	4295	494.470204121757	17
8	4300	494.486095471013	16
8	4308	494.599906225415	15
8	4315	494.678545887721	16
8	4320	495.171726657042	15
8	4325	495.206867536674	14
8	4332	495.30122506514	15
8	4359	497.216160059585	16
8	4414	503.232381427585	15
8	4419	503.263672476324	14
8	4429	503.648769121915	13
8	4456	505.302110272427	14
8	4458	505.337080591703	15
8	4480	508.364518623259	16
8	4510	511.382970875098	15
8	4520	512.357292931463	14
8	4524	512.498563486566	15
8	4527	512.53621807005	14
8	4544	513.261377072126	15
8	4548	513.485196221378	16
8	4563	515.306717941347	17
8	4568	515.649598218753	16
8	4575	516.388157784168	17
8	4602	523.82608932544	18
8	4604	525.098519667741	19
8	4616	525.862714169923	18
8	4624	526.025516534705	17
8	4639	528.068336570085	16
8	4654	528.930679169706	15
8	4666	531.720637843257	16
8	4678	532.813805438202	17
8	4730	541.149435650231	18
8	4732	543.236161062636	19
8	4782	547.466191074109	18
8	4799	549.539513012947	19
8	4844	557.939191621818	18
8	4861	559.413228015285	19
8	4866	563.375864747561	18
8	4888	564.132100507698	19
8	4935	569.403516884057	20
8	4965	575.057525051419	19
8	4977	575.511948488966	18
8	5012	581.073548962284	19
8	5042	585.247027330767	18
8	5049	586.155121462003	19
8	5069	593.081381296456	18
8	5084	597.348040190755	17
8	5099	598.095954588332	16
8	5106	599.019457707104	17
8	5113	599.242332522732	18
8	5130	600.263121698794	19
8	5161	605.027178488248	20
8	5212	611.059108762845	19
8	5232	612.474244460634	18
8	5242	612.67952960668	17
8	5262	615.365582929427	16
8	5267	615.430458296939	15
8	5279	616.115503026029	16
8	5291	619.22306638737	17
8	5298	620.831836348868	18
8	5303	621.847531336545	17
8	5310	622.423999796181	18
8	5345	626.068277279744	17
8	5390	630.415277768869	16
8	5397	632.732093036355	17
8	5399	633.365415010553	18
8	5404	633.726795389549	17
8	5421	635.52884741811	18
8	5431	637.036308194287	17
8	5451	641.799577148976	16
8	5468	642.500483439517	17
8	5473	642.950155896183	16
8	5485	645.723891127379	17
8	5500	654.54300573589	16
8	5512	655.867342463794	17
8	5518	658.247692002723	18
8	5536	660.050187734841	19
8	5546	661.338491037046	18
8	5556	665.131001453319	17
8	5563	665.215568211502	18
8	5568	665.511679902628	17
8	5573	665.573917740241	16
8	5598	666.753404929151	15
8	5603	666.762712053891	14
8	5608	666.85726528812	13
8	5615	668.447550980114	14
8	5625	668.601729197451	13
8	5635	669.680817884444	12
8	5647	670.584980832175	13
8	5662	671.249728303616	12
8	5669	673.069077785093	13
8	5671	673.595732843856	14
8	5673	673.641148164516	15
8	5675	680.11792656302	16
8	5707	685.813836841518	17
8	5712	685.921147481582	16
8	5724	686.752333051702	17
8	5726	686.765705695147	18
8	5731	687.067356677147	17
8	5743	690.486799064347	18
8	5748	690.991372314157	17
8	5763	692.308072642388	16
8	5790	692.966841027087	15
8	5795	692.996771649662	14
8	5805	693.33086128894	15
8	5814	694.174999048344	16
8	5817	694.30343301696	15
8	5827	694.53125895257	14
8	5842	695.263327825233	13
8	5846	695.563745100762	14
8	5858	695.872587144722	15
8	5863	697.479887854788	16
8	5865	697.58831681226	17
8	5890	701.400391172342	16
8	5960	705.635293919814	15
8	5967	705.843976392967	14
8	5972	706.067784566882	13
8	6007	708.821839427522	14
8	6014	710.358075529063	15
8	6036	712.987939729459	16
8	6090	717.923509527683	17
8	6103	720.344897542983	16
8	6140	721.452629002351	15
8	6168	722.231724202642	14
8	6175	723.601582676637	15
8	6177	725.679713055328	16
8	6184	726.85634023554	17
8	6186	728.58393968432	18
8	6206	736.867408243889	17
8	6251	738.813918545926	16
8	6278	741.219857443443	17
8	6288	742.482823791802	16
8	6293	742.605057982816	15
8	6315	744.30347403812	16
8	6345	747.411411646797	15
8	6355	749.138501262679	14
8	6359	749.283280877024	15
8	6369	749.4382060142	16
8	6391	751.074699808768	17
8	6393	751.688668922837	18
8	6403	753.014603104899	17
8	6408	753.068649704827	16
8	6425	754.723270803912	17
8	6440	757.694781012946	16
8	6444	757.700323384693	17
8	6449	760.251341450024	18
8	6464	762.600349872856	17
8	6476	763.692592572888	18
8	6501	769.770955655253	17
8	6523	772.051105741558	18
8	6545	772.645472124205	17
8	6573	776.334841368941	16
8	6578	776.344724738294	15
8	6582	776.389762026178	16
8	6597	778.53651532345	17
8	6607	780.557824186178	16
8	6624	781.321671856443	17
8	6646	787.23640176683	18
8	6661	788.194357122058	17
8	6666	788.195919087362	16
8	6681	789.093566382475	15
8	6691	789.609529747697	14
8	6696	789.613801988808	13
8	6703	794.253773628938	14
8	6713	796.47089321467	13
8	6718	796.472461984027	12
8	6723	796.518714062613	11
8	6730	797.149524435561	12
8	6734	797.411648429724	13
8	6739	797.680270476884	14
8	6744	797.81808365435	13
8	6761	801.197092091529	14
8	6778	803.148286784536	15
8	6785	804.27150645792	16
8	6790	808.764185282812	15
8	6812	809.609809049393	14
8	6817	809.637283846262	13
8	6832	810.134294149671	14
8	6834	810.14436901908	15
8	6856	812.148889275201	16
8	6861	812.892556590797	15
8	6873	813.413852924612	16
8	6875	814.794989336497	17
8	6877	814.963962751437	18
8	6894	819.384866769042	19
8	6896	820.566902117754	20
8	6911	830.035183294286	19
8	6938	832.594102029953	20
8	6948	837.217715006165	19
8	6958	838.158048857361	18
8	6970	839.507265141407	19
8	6982	843.270947573064	20
8	7042	853.070292137193	19
8	7064	854.577366647136	20
8	7084	858.897764578612	19
8	7099	859.718078820333	18
8	7106	859.837209744049	19
8	7146	862.735425258842	18
8	7156	865.44043727653	17
8	7178	867.55690433462	18
8	7220	877.306953875677	19
8	7225	877.454458004091	18
8	7242	882.423950088191	19
8	7247	882.583678440485	18
8	7254	883.581046232881	19
8	7263	884.247692062349	20
8	7281	885.51713998689	19
8	7286	885.530431960428	18
8	7291	885.534282523178	17
8	7296	885.566175382909	16
8	7311	886.325173039603	15
8	7326	888.296330302172	14
8	7330	888.451159407297	15
8	7338	889.296701671769	14
8	7345	890.504383032577	15
8	7347	896.442045589329	16
8	7349	896.97846340651	17
8	7356	899.025231671809	18
8	7363	901.65634063743	19
8	7373	905.425414231486	18
8	7398	906.991407183247	17
8	7420	907.742367466937	16
8	7439	908.742613065918	17
8	7445	908.834450377884	16
8	7467	911.013537972431	17
8	7482	912.107633390655	16
8	7486	912.190927763673	17
8	7489	912.211969725022	16
8	7499	913.92066326509	15
8	7506	914.206521611662	16
8	7508	914.644931264093	17
8	7525	919.777614273881	18
8	7532	922.025600364411	19
8	7542	922.934410371461	18
8	7569	923.822629840971	17
8	7576	923.910555257451	16
8	7581	923.926163789125	15
8	7617	925.368098687934	14
8	7622	925.443462751743	13
8	7646	927.848820803179	14
8	7659	928.62771810303	13
8	7676	929.682690067865	14
8	7678	929.928210402463	15
8	7710	931.319850327119	16
8	7712	932.259834302089	17
8	7717	934.558275642454	16
8	7749	940.347664407124	17
8	7761	942.772892970007	18
8	7771	943.445645568982	17
8	7781	943.639710519524	16
8	7803	945.775673374327	17
8	7815	946.286048103882	18
8	7840	948.075497162096	17
8	7845	948.147725058946	16
8	7855	948.878666571012	15
8	7869	950.446857568176	16
8	7904	951.464909266468	15
8	7917	951.966902693231	14
8	7924	952.0931602048	15
8	7961	956.382749418617	14
8	7969	956.505938919913	13
8	7986	956.99966850316	14
8	8036	961.766126324801	13
8	8063	963.035020710364	14
8	8065	963.193569780301	15
8	8070	966.307267993806	14
8	8077	967.082765871491	15
8	8079	968.644810513916	16
8	8091	970.265133466929	17
8	8101	971.314167051148	16
8	8110	972.796664121548	17
8	8115	974.492550939502	18
8	8120	975.603335961062	17
8	8125	975.707471296633	16
8	8130	975.710243762565	15
8	8135	975.724750317674	14
8	8144	976.744929288044	15
8	8149	976.825093715542	14
8	8157	977.04929132925	13
8	8162	977.04938947549	12
8	8174	977.436021411747	13
8	8179	977.578620403083	12
8	8191	978.165063728591	13
8	8193	978.211084203795	14
8	8200	979.9552674568	15
8	8222	982.510728663452	16
8	8237	982.946216490729	15
8	8251	983.113780707716	16
8	8261	985.80774084904	17
8	8268	988.662079844361	16
8	8291	989.204951381828	15
8	8353	993.086369885149	16
8	8370	996.165456372851	17
8	8375	996.617983395556	16
8	8382	997.723562154968	17
8	8392	999.197677716687	16
8	8449	1001.872453766825	17
8	8459	1002.347596760347	16
8	8471	1005.540096759107	17
8	8491	1007.679864927371	16
8	8513	1010.15007184434	17
8	8515	1011.054078311087	18
8	8527	1018.247094134124	19
8	8529	1020.015630596176	20
8	8534	1020.182043443425	19
8	8599	1033.484579328945	18
8	8649	1044.695583532591	17
8	8666	1048.707999892501	18
8	8678	1054.861620524264	17
8	8701	1057.244535395301	16
8	8711	1057.577162587765	15
8	8743	1058.490392931872	16
8	8770	1060.935162319766	17
8	8800	1062.308638474179	16
8	8840	1065.16157941582	15
8	8852	1065.594397649894	16
8	8854	1066.134620036748	17
8	8898	1072.814957343687	18
8	8963	1078.998543213403	19
8	9015	1083.905200243864	20
8	9115	1099.52644290337	19
8	9145	1103.205840875907	18
8	9157	1104.681407042675	19
8	9162	1105.751389472919	18
8	9182	1106.193675199437	17
8	9199	1109.2518601241	18
8	9208	1110.560147017161	19
8	9211	1110.57186918949	18
8	9236	1112.12143404191	17
8	9248	1112.832512424891	16
8	9253	1112.894514237518	15
8	9258	1113.186280877268	14
8	9263	1113.288675785066	13
8	9277	1113.751548345636	14
8	9285	1113.817612950478	13
8	9289	1113.916054324237	14
8	9291	1114.061440215613	15
8	9307	1116.004955752195	14
8	9312	1116.033317714477	13
8	9319	1118.685074099341	14
8	9326	1119.562392773379	15
8	9331	1119.70748279231	14
8	9350	1122.183034767873	15
8	9370	1124.075512083355	16
8	9372	1125.848934596286	17
8	9377	1126.155687796197	16
8	9399	1128.9434221505	17
8	9404	1130.178989613878	16
8	9411	1130.707068301642	17
8	9421	1134.138935888574	16
8	9436	1134.555327197339	15
8	9453	1135.064755796875	16
8	9470	1136.779844492813	17
8	9472	1136.818994981921	18
8	9477	1137.270584275596	17
8	9494	1137.840857097021	18
8	9501	1148.393954681477	19
8	9503	1153.198503356233	20
8	9563	1166.126377975271	19
8	9585	1167.472517942398	20
8	9600	1167.956319745276	19
8	9615	1168.32032298944	18
8	9635	1169.553657459494	17
8	9670	1174.062747317936	16
8	9679	1174.405766280067	17
8	9684	1174.531213976871	18
8	9691	1176.421693563572	19
8	9693	1178.049088045546	20
8	9698	1178.635715656583	19
8	9728	1182.159266534604	18
8	9733	1182.287836408149	17
8	9743	1182.832042956528	16
8	9765	1186.792033878787	17
8	9770	1188.283022159503	16
8	9789	1192.151661306839	17
8	9792	1192.204793001563	16
8	9804	1194.161155386866	17
8	9809	1194.978115268429	16
8	9816	1195.701212181139	17
8	9823	1195.993079310192	18
8	9828	1200.315565051982	17
8	9840	1201.340664739818	18
8	9845	1202.909359772886	17
8	9902	1206.654954011374	18
8	9904	1207.794075315768	19
8	9929	1210.679240111352	18
8	9934	1210.714437093413	17
8	9949	1211.057872732439	16
8	9981	1212.334208686811	17
8	9985	1212.529289330665	18
8	10018	1215.663647823904	17
8	10033	1216.260884811859	16
8	10037	1216.337747857355	17
8	10055	1219.066353483025	16
8	10065	1219.444940398798	15
8	10077	1221.682786431561	16
8	10092	1222.675625246385	15
8	10103	1222.896341296789	16
8	10106	1223.015736160177	15
8	10110	1223.112433631444	16
8	10116	1223.194306301171	15
8	10121	1223.207723663902	14
8	10131	1223.350319216535	13
8	10148	1224.622103247144	14
8	10150	1224.845724916808	15
8	10152	1225.062570126005	16
8	10167	1226.891790543603	15
8	10179	1228.52263454828	16
8	10191	1229.078392192446	17
8	10226	1232.565953608852	16
8	10230	1232.659386387915	17
8	10238	1232.823497455219	16
8	10245	1234.476565205906	17
8	10260	1238.476439436626	16
8	10272	1242.188000248023	17
8	10277	1242.319938716234	16
8	10282	1242.451695157045	15
8	10286	1242.639438568817	16
8	10319	1245.02926170943	15
8	10339	1248.799047129398	14
8	10346	1248.831905054351	15
8	10358	1250.35992710764	16
8	10365	1250.669128882715	15
8	10370	1250.773504692173	14
8	10380	1251.222815056516	13
8	10385	1251.242528519248	12
8	10405	1252.772764011767	13
8	10410	1253.124355395948	12
8	10462	1259.010728515942	13
8	10486	1260.173231551153	12
8	10501	1260.650450943874	13
8	10529	1262.66389001821	12
8	10541	1263.052707310704	13
8	10543	1264.027717742856	14
8	10545	1264.093881837662	15
8	10547	1265.274399706833	16
8	10554	1268.258072131264	17
8	10556	1270.426748586679	18