version 2
run Multitask30-21-20150106-11:37:59-5636
attr configname Multitask30
attr datetime 20150106-11:37:59
attr experiment Multitask30
attr inifile omnetpp.ini
attr iterationvars ""
attr iterationvars2 $repetition=21
attr measurement ""
attr network Multitask
attr processid 5636
attr repetition 21
attr replication #21
attr resultdir results
attr runnumber 21
attr seedset 21

vector 8  Multitask.allocateQ2  queueLength:vector  ETV
attr interpolationmode  sample-hold
attr title  "queue length, vector"
vector 11  Multitask.queue3  queueLength:vector  ETV
attr interpolationmode  sample-hold
attr title  "queue length, vector"
vector 13  Multitask.queue3  busy:vector  ETV
attr interpolationmode  sample-hold
attr title  "server busy state, vector"
vector 15  Multitask.queue4  queueLength:vector  ETV
attr interpolationmode  sample-hold
attr title  "queue length, vector"
vector 17  Multitask.queue4  busy:vector  ETV
attr interpolationmode  sample-hold
attr title  "server busy state, vector"
vector 19  Multitask.queue5  queueLength:vector  ETV
attr interpolationmode  sample-hold
attr title  "queue length, vector"
vector 21  Multitask.queue5  busy:vector  ETV
attr interpolationmode  sample-hold
attr title  "server busy state, vector"
vector 23  Multitask.queue6  queueLength:vector  ETV
attr interpolationmode  sample-hold
attr title  "queue length, vector"
vector 25  Multitask.queue6  busy:vector  ETV
attr interpolationmode  sample-hold
attr title  "server busy state, vector"
vector 27  Multitask.queue7  queueLength:vector  ETV
attr interpolationmode  sample-hold
attr title  "queue length, vector"
vector 29  Multitask.queue7  busy:vector  ETV
attr interpolationmode  sample-hold
attr title  "server busy state, vector"
vector 30  Multitask.resourceCPU  amount:vector  ETV
attr interpolationmode  sample-hold
attr title  "available resource, vector"
vector 12  Multitask.queue3  queueingTime:vector  ETV
attr interpolationmode  none
attr title  "queueing time at dequeue, vector"
attr unit  s
vector 20  Multitask.queue5  queueingTime:vector  ETV
attr interpolationmode  none
attr title  "queueing time at dequeue, vector"
attr unit  s
vector 16  Multitask.queue4  queueingTime:vector  ETV
attr interpolationmode  none
attr title  "queueing time at dequeue, vector"
attr unit  s
vector 24  Multitask.queue6  queueingTime:vector  ETV
attr interpolationmode  none
attr title  "queueing time at dequeue, vector"
attr unit  s
vector 28  Multitask.queue7  queueingTime:vector  ETV
attr interpolationmode  none
attr title  "queueing time at dequeue, vector"
attr unit  s
vector 9  Multitask.allocateQ2  queueingTime:vector  ETV
attr interpolationmode  none
attr title  "queueing time at dequeue, vector"
attr unit  s
vector 0  Multitask.sink  lifeTime:vector  ETV
attr interpolationmode  none
attr title  "lifetime of arrived jobs, vector"
attr unit  s
vector 1  Multitask.sink  totalQueueingTime:vector  ETV
attr interpolationmode  none
attr title  "the total time spent in queues by arrived jobs, vector"
attr unit  s
vector 4  Multitask.sink  queuesVisited:vector  ETV
attr interpolationmode  none
attr title  "the total number of queues visited by arrived jobs, vector"
vector 3  Multitask.sink  totalServiceTime:vector  ETV
attr interpolationmode  none
attr title  "the total time spent  by arrived jobs, vector"
attr unit  s
vector 2  Multitask.sink  totalDelayTime:vector  ETV
attr interpolationmode  none
attr title  "the total time spent in delay nodes by arrived jobs, vector"
attr unit  s
vector 5  Multitask.sink  delaysVisited:vector  ETV
attr interpolationmode  none
attr title  "the total number of delays visited by arrived jobs, vector"
vector 6  Multitask.sink  generation:vector  ETV
attr interpolationmode  none
attr title  "the generation of the arrived jobs, vector"
0	12688	1516.181006227802	1516.1810062278
0	12699	1517.14404168366	1517.1440416837
0	12737	1518.524319848982	1518.524319849
0	12835	1527.565577451906	1527.5655774519
0	12878	1533.922118371086	1533.9221183711
0	12974	1541.458338007633	1541.4583380076
0	12985	1542.666306799403	1542.6663067994
0	12996	1544.08362778259	1544.0836277826
0	13016	1545.076838807018	1545.076838807
0	13028	1545.311577789013	1545.311577789
0	13039	1546.362379135988	1546.362379136
0	13045	1546.36376577746	1546.3637657775
0	13051	1546.521345026397	1546.5213450264
0	13062	1547.14766509388	1547.1476650939
0	13078	1548.379582159993	1548.37958216
0	13089	1548.738965026608	1548.7389650266
0	13105	1549.612456786125	1549.6124567861
0	13171	1554.347120559574	1554.3471205596
0	13202	1555.594485931741	1555.5944859317
0	13213	1556.539649182444	1556.5396491824
0	13248	1561.003775282261	1561.0037752823
0	13260	1561.568923546318	1561.5689235463
0	13317	1568.420970876255	1568.4209708763
0	13379	1584.417694585673	1584.4176945857
0	13386	1589.799174663183	1589.7991746632
1	12688	1516.181006227802	1266.8583278196
1	12699	1517.14404168366	1191.9885427691
1	12737	1518.524319848982	1152.4837357378
1	12835	1527.565577451906	1211.153772461
1	12878	1533.922118371086	1234.8754034494
1	12974	1541.458338007633	1173.4675341221
1	12985	1542.666306799403	1175.0662860101
1	12996	1544.08362778259	1303.7852702436
1	13016	1545.076838807018	1239.7135589185
1	13028	1545.311577789013	1292.8702657022
1	13039	1546.362379135988	1257.8291175613
1	13045	1546.36376577746	1194.9698509317
1	13051	1546.521345026397	1179.9537134393
1	13062	1547.14766509388	1268.832913619
1	13078	1548.379582159993	1241.5457563261
1	13089	1548.738965026608	1291.6835041373
1	13105	1549.612456786125	1176.1855056436
1	13171	1554.347120559574	1251.4090481607
1	13202	1555.594485931741	1297.0571662135
1	13213	1556.539649182444	1280.8914871949
1	13248	1561.003775282261	1236.9963429055
1	13260	1561.568923546318	1280.2084482224
1	13317	1568.420970876255	1192.1164089156
1	13379	1584.417694585673	1288.0461828411
1	13386	1589.799174663183	1202.3917643682
2	12688	1516.181006227802	0
2	12699	1517.14404168366	0
2	12737	1518.524319848982	0
2	12835	1527.565577451906	0
2	12878	1533.922118371086	0
2	12974	1541.458338007633	0
2	12985	1542.666306799403	0
2	12996	1544.08362778259	0
2	13016	1545.076838807018	0
2	13028	1545.311577789013	0
2	13039	1546.362379135988	0
2	13045	1546.36376577746	0
2	13051	1546.521345026397	0
2	13062	1547.14766509388	0
2	13078	1548.379582159993	0
2	13089	1548.738965026608	0
2	13105	1549.612456786125	0
2	13171	1554.347120559574	0
2	13202	1555.594485931741	0
2	13213	1556.539649182444	0
2	13248	1561.003775282261	0
2	13260	1561.568923546318	0
2	13317	1568.420970876255	0
2	13379	1584.417694585673	0
2	13386	1589.799174663183	0
3	12688	1516.181006227802	101.12337669644
3	12699	1517.14404168366	156.09070944005
3	12737	1518.524319848982	108.39066365119
3	12835	1527.565577451906	102.13734361711
3	12878	1533.922118371086	117.98215016074
3	12974	1541.458338007633	119.12049689739
3	12985	1542.666306799403	95.893228878
3	12996	1544.08362778259	116.60389683626
3	13016	1545.076838807018	108.86751501159
3	13028	1545.311577789013	88.53233247473
3	13039	1546.362379135988	128.13253840917
3	13045	1546.36376577746	174.43183355859
3	13051	1546.521345026397	112.96969766204
3	13062	1547.14766509388	93.392599400904
3	13078	1548.379582159993	115.42896023356
3	13089	1548.738965026608	112.37594779158
3	13105	1549.612456786125	113.88691026655
3	13171	1554.347120559574	93.048044597456
3	13202	1555.594485931741	133.20051828262
3	13213	1556.539649182444	149.60996239425
3	13248	1561.003775282261	146.29336172964
3	13260	1561.568923546318	135.79495313251
3	13317	1568.420970876255	96.213459193174
3	13379	1584.417694585673	117.14255337004
3	13386	1589.799174663183	165.06063415306
4	12688	1516.181006227802	34
4	12699	1517.14404168366	53
4	12737	1518.524319848982	51
4	12835	1527.565577451906	43
4	12878	1533.922118371086	40
4	12974	1541.458338007633	49
4	12985	1542.666306799403	35
4	12996	1544.08362778259	55
4	13016	1545.076838807018	46
4	13028	1545.311577789013	44
4	13039	1546.362379135988	54
4	13045	1546.36376577746	52
4	13051	1546.521345026397	39
4	13062	1547.14766509388	48
4	13078	1548.379582159993	59
4	13089	1548.738965026608	49
4	13105	1549.612456786125	31
4	13171	1554.347120559574	49
4	13202	1555.594485931741	54
4	13213	1556.539649182444	57
4	13248	1561.003775282261	67
4	13260	1561.568923546318	52
4	13317	1568.420970876255	37
4	13379	1584.417694585673	53
4	13386	1589.799174663183	57
5	12688	1516.181006227802	0
5	12699	1517.14404168366	0
5	12737	1518.524319848982	0
5	12835	1527.565577451906	0
5	12878	1533.922118371086	0
5	12974	1541.458338007633	0
5	12985	1542.666306799403	0
5	12996	1544.08362778259	0
5	13016	1545.076838807018	0
5	13028	1545.311577789013	0
5	13039	1546.362379135988	0
5	13045	1546.36376577746	0
5	13051	1546.521345026397	0
5	13062	1547.14766509388	0
5	13078	1548.379582159993	0
5	13089	1548.738965026608	0
5	13105	1549.612456786125	0
5	13171	1554.347120559574	0
5	13202	1555.594485931741	0
5	13213	1556.539649182444	0
5	13248	1561.003775282261	0
5	13260	1561.568923546318	0
5	13317	1568.420970876255	0
5	13379	1584.417694585673	0
5	13386	1589.799174663183	0
6	12688	1516.181006227802	0
6	12699	1517.14404168366	0
6	12737	1518.524319848982	0
6	12835	1527.565577451906	0
6	12878	1533.922118371086	0
6	12974	1541.458338007633	0
6	12985	1542.666306799403	0
6	12996	1544.08362778259	0
6	13016	1545.076838807018	0
6	13028	1545.311577789013	0
6	13039	1546.362379135988	0
6	13045	1546.36376577746	0
6	13051	1546.521345026397	0
6	13062	1547.14766509388	0
6	13078	1548.379582159993	0
6	13089	1548.738965026608	0
6	13105	1549.612456786125	0
6	13171	1554.347120559574	0
6	13202	1555.594485931741	0
6	13213	1556.539649182444	0
6	13248	1561.003775282261	0
6	13260	1561.568923546318	0
6	13317	1568.420970876255	0
6	13379	1584.417694585673	0
6	13386	1589.799174663183	0
8	0	0	0
8	95	1.429937533325	1
8	99	1.705680293264	2
8	106	1.919850148742	3
8	118	2.305745511665	4
8	121	2.311381474079	3
8	168	3.412370949877	4
8	172	3.599257793091	5
8	174	3.683346403362	6
8	179	4.160274801376	7
8	193	5.070753536074	8
8	198	6.215605143621	9
8	205	8.760880050666	10
8	210	10.269589614205	9
8	222	10.903771765221	10
8	227	11.340118723118	9
8	231	11.389412015996	10
8	243	11.962460194948	11
8	246	12.047522277038	10
8	253	12.764228961437	11
8	260	13.57535271297	12
8	272	16.058038744144	13
8	279	16.208600456536	14
8	281	16.470006683525	15
8	291	16.887203388016	14
8	296	17.008324713966	13
8	303	17.392758908088	14
8	320	18.72022817589	15
8	322	18.983648977218	16
8	332	19.502727604459	15
8	349	20.204520578541	16
8	351	22.161107484637	17
8	383	30.282343958784	18
8	398	34.958738082853	17
8	413	37.372448386259	16
8	418	37.446844388983	15
8	425	38.147321160732	16
8	427	38.975803979132	17
8	449	42.073472192411	18
8	464	42.899585819766	17
8	469	42.960742356209	16
8	516	48.014504796927	17
8	531	50.110509742804	16
8	536	50.180152059252	15
8	541	50.225701872375	14
8	551	50.444119718208	13
8	558	51.590048227979	14
8	560	52.528073745456	15
8	562	53.77073556783	16
8	564	53.779286155766	17
8	566	54.075373552618	18
8	586	55.918979386738	17
8	603	56.843266064637	18
8	615	57.396672523672	19
8	629	58.17244116138	20
8	652	59.027329395602	19
8	699	61.904949530181	18
8	724	63.191527076595	19
8	729	63.719221656333	18
8	744	64.010553520987	17
8	751	66.141650930517	18
8	771	71.184395927362	17
8	776	71.241077896727	16
8	791	71.469319697835	15
8	803	72.830911145403	14
8	808	72.952561253149	13
8	818	73.485861582074	14
8	830	74.009372682642	15
8	832	74.592151985251	16
8	857	75.759239285615	15
8	864	77.556136468448	16
8	894	79.164018690329	15
8	899	79.664476465527	14
8	916	84.131889205107	15
8	918	87.101503870198	16
8	932	88.949303107235	17
8	944	90.516571698727	18
8	954	92.811593515567	19
8	959	94.56022113783	18
8	984	101.664341287842	17
8	996	102.30953917574	16
8	1001	102.546283674932	15
8	1016	103.545426984949	16
8	1046	105.287589797694	15
8	1081	109.680677136754	14
8	1088	109.87321689765	15
8	1112	111.288909422463	16
8	1150	112.91591456417	15
8	1157	113.062179319948	16
8	1162	113.194021165423	15
8	1169	113.953191656668	16
8	1184	115.285530549604	15
8	1201	118.148074394509	16
8	1211	119.401529459135	15
8	1253	120.550816786866	14
8	1257	120.585884242084	15
8	1263	120.962766365807	14
8	1268	121.008618086468	13
8	1280	121.705545012048	12
8	1297	122.172828935915	13
8	1299	122.332966480351	14
8	1302	122.355277039418	13
8	1309	123.232279545349	14
8	1311	123.74551199723	15
8	1313	124.190442764753	16
8	1332	124.955445193835	15
8	1342	125.351601361076	16
8	1352	127.527396533077	17
8	1359	128.25844041924	18
8	1371	133.399414563455	19
8	1386	137.084739351317	18
8	1428	141.103948913323	19
8	1430	142.840690260103	20
8	1455	147.327746404471	19
8	1472	155.24883135068	20
8	1487	166.505974238471	19
8	1492	166.5527710716	18
8	1509	167.730780310612	17
8	1517	167.780394740904	16
8	1544	169.807945911323	17
8	1571	175.395803633471	18
8	1603	179.879727067442	19
8	1643	185.780134413249	18
8	1647	185.913364946155	19
8	1755	198.817490377632	18
8	1767	199.843509005102	19
8	1807	208.879603067444	18
8	1817	209.412894336389	17
8	1824	212.003236920919	18
8	1849	221.387161013697	17
8	1874	224.766457069745	16
8	1891	226.945079474255	17
8	1895	229.413848740234	18
8	1918	232.343627427063	17
8	1940	233.103991835929	18
8	1990	238.589302235737	17
8	1997	238.951734474432	18
8	2002	241.792105544648	17
8	2019	244.071093867402	18
8	2021	244.767992889207	19
8	2028	253.083341846828	20
8	2043	257.811066382413	19
8	2053	258.373921747452	18
8	2123	271.331214793447	17
8	2127	271.366726624692	18
8	2136	271.694852048043	19
8	2142	271.924316196507	18
8	2152	272.190413223596	17
8	2164	273.129307526523	18
8	2171	273.694765273136	19
8	2183	275.419512087549	18
8	2216	276.69142740968	17
8	2233	277.969094163467	18
8	2240	278.161218915304	19
8	2245	278.21199953604	18
8	2282	282.311855019415	19
8	2299	285.131192713984	18
8	2312	285.602032243066	17
8	2324	287.550066560095	18
8	2343	288.445675629084	19
8	2351	289.435805780836	18
8	2356	289.49564074451	17
8	2368	291.238141278869	18
8	2373	292.512954285686	17
8	2403	293.714696382201	16
8	2408	293.923573940573	15
8	2413	294.000373607336	14
8	2417	294.179058469431	15
8	2427	294.53332613007	14
8	2434	294.749100003542	15
8	2449	296.872258515727	16
8	2451	297.741299905869	17
8	2458	300.384642660912	18
8	2465	301.898244372078	19
8	2485	302.835414135166	18
8	2495	303.049384086471	17
8	2505	303.204883388362	16
8	2510	303.429626596219	15
8	2517	303.635443626709	16
8	2522	303.742139743253	15
8	2527	303.768740495299	14
8	2532	303.997132454373	13
8	2542	305.092955679586	12
8	2549	305.810453495001	13
8	2556	307.011395914149	14
8	2573	308.443003567271	15
8	2575	309.634148352429	16
8	2579	309.768801400511	17
8	2581	309.783466245926	18
8	2584	309.95955499445	17
8	2589	310.024343343495	16
8	2601	310.408515436619	15
8	2627	311.125101770956	14
8	2649	311.458307056308	13
8	2686	312.385324099971	14
8	2698	313.105591008862	15
8	2703	313.491950014548	14
8	2713	314.094348411122	13
8	2723	315.280875246852	12
8	2762	317.123289971008	13
8	2765	317.33251337122	12
8	2772	317.935400437888	13
8	2774	318.306317803844	14
8	2784	318.900493615174	13
8	2788	318.935218554826	14
8	2808	321.61735099473	15
8	2833	326.799025552666	14
8	2848	327.736782681378	13
8	2863	328.988474182208	12
8	2870	329.443425885651	13
8	2872	330.443012210077	14
8	2874	331.315322045615	15
8	2884	332.441940907791	14
8	2909	334.012935161848	13
8	2923	334.667448150802	14
8	2943	335.46414406106	15
8	2958	336.793578498393	14
8	2968	338.061789392337	13
8	2985	338.808264001473	14
8	2995	339.374549223398	13
8	3015	341.01716479839	12
8	3020	341.099197479258	11
8	3029	341.343970492813	10
8	3050	342.816361319302	9
8	3057	343.248603353755	10
8	3061	343.609549009303	11
8	3065	343.918952294979	12
8	3093	346.328365908157	13
8	3100	346.939952367137	14
8	3102	348.050728714731	15
8	3104	348.26297433498	16
8	3109	348.589990121337	15
8	3114	348.609577385449	14
8	3121	349.247509196707	15
8	3163	357.067578488524	16
8	3173	360.349154359335	15
8	3183	360.481873657206	14
8	3188	360.511938422519	13
8	3200	362.166568850954	14
8	3202	362.589745042712	15
8	3224	365.931632837174	16
8	3226	367.108101313524	17
8	3228	368.774658941917	18
8	3247	369.748975110377	19
8	3252	369.854903579582	18
8	3300	378.9317750329	17
8	3312	380.517912492405	16
8	3317	380.740490107324	15
8	3325	380.950656906235	14
8	3329	381.000289234614	15
8	3337	381.683531532836	14
8	3374	384.974721619325	15
8	3381	385.554126709758	16
8	3408	390.137712134964	17
8	3423	394.626794567301	16
8	3432	395.037068844928	17
8	3442	395.821156932997	18
8	3479	412.947099321601	19
8	3489	415.269085315604	18
8	3511	415.943833312002	17
8	3519	416.066076580356	16
8	3541	416.915816662212	17
8	3545	417.684046928584	18
8	3552	418.001900548385	19
8	3560	418.438795385546	18
8	3595	424.954624270329	17
8	3640	429.180276313813	16
8	3667	431.806527364245	17
8	3669	432.424753048535	18
8	3674	434.788594614951	17
8	3686	435.050623720719	16
8	3691	435.120741989081	15
8	3696	435.137747284002	14
8	3731	437.246241257137	13
8	3739	437.270065953684	12
8	3764	440.63949863852	11
8	3771	441.255883458383	12
8	3776	441.506109116092	11
8	3783	441.991581879275	12
8	3785	442.357348212523	13
8	3787	442.4001096702	14
8	3789	444.197797416166	15
8	3796	445.362787247688	14
8	3806	445.911874151992	15
8	3823	446.641501993372	16
8	3825	447.827394574141	17
8	3837	453.220757144385	18
8	3854	455.671906676361	19
8	3864	456.051542183461	18
8	3879	456.64580645442	17
8	3886	457.574698009316	18
8	3888	459.289530513977	19
8	3898	463.037421601995	18
8	3903	463.064451544978	17
8	3910	463.231957242828	18
8	3912	467.20010299611	19
8	3922	467.952594498838	18
8	3927	468.061303015285	17
8	3957	471.92660646324	16
8	3964	472.714823133304	17
8	3979	473.10713188501	16
8	4009	474.573023253315	15
8	4024	475.450747755843	14
8	4039	477.092558123887	13
8	4044	477.221251297223	12
8	4056	477.976418531793	13
8	4058	479.462039900368	14
8	4070	480.212141967077	15
8	4077	480.545628500295	14
8	4082	480.632840020669	13
8	4097	481.158210650029	14
8	4112	481.583122942624	13
8	4126	482.248614753781	14
8	4136	482.432160008063	15
8	4138	484.20222985317	16
8	4140	484.570702112953	17
8	4142	485.732602471892	18
8	4147	487.713805510817	17
8	4182	494.090657719991	16
8	4204	496.593590809	17
8	4226	497.934516445312	18
8	4231	498.198376510678	17
8	4238	498.457969561829	18
8	4248	498.945612124684	17
8	4253	499.059027514072	16
8	4258	499.085449102032	15
8	4267	499.854426561653	16
8	4287	500.940811674891	17
8	4302	502.63661641285	16
8	4312	502.932542407308	15
8	4321	503.333661445399	16
8	4326	505.863914867315	17
8	4331	505.982430492991	16
8	4338	506.201864259608	17
8	4340	508.115262678006	18
8	4347	509.415760194757	19
8	4352	509.539842966328	18
8	4359	511.341569594946	19
8	4361	516.168223392488	20
8	4416	531.860660605346	19
8	4421	532.292322781192	18
8	4447	533.278020465006	19
8	4450	533.281635339002	18
8	4465	534.624944823749	19
8	4472	540.356912330377	20
8	4494	541.401208464193	19
8	4507	541.977357730629	18
8	4514	543.697595964019	19
8	4539	545.464454102804	18
8	4544	545.498035654477	17
8	4551	546.569361277563	18
8	4553	546.66391320454	19
8	4558	547.435220811594	18
8	4578	548.337912350724	17
8	4590	549.66155064745	18
8	4592	550.454658104505	19
8	4604	555.565759479621	20
8	4624	559.46221911051	19
8	4629	559.467267393626	18
8	4634	559.549991755451	17
8	4651	562.280784104051	18
8	4661	563.057436402888	17
8	4678	563.396973515211	18
8	4688	563.516053770703	17
8	4695	566.475403268458	18
8	4697	566.661447244413	19
8	4739	579.232643681588	20
8	4749	582.082536447798	19
8	4756	582.475197374875	20
8	4776	585.913348072604	19
8	4798	587.824182533975	20
8	4803	588.467019818711	19
8	4810	588.596118083208	18
8	4825	589.216472893914	19
8	4835	589.445273993117	18
8	4867	591.535299195032	19
8	4902	595.612924217042	18
8	4912	595.901201193244	17
8	4929	598.258911330207	16
8	4964	599.394867809408	15
8	4971	599.563942666821	16
8	4976	601.964433278334	17
8	4993	605.283961237281	18
8	5013	607.087211380583	17
8	5022	607.353777154723	18
8	5032	608.575075941148	19
8	5067	610.359828623153	18
8	5087	611.01421418095	17
8	5099	611.480760413927	18
8	5116	615.220631982331	19
8	5121	615.440443362407	18
8	5141	616.226396710964	17
8	5146	616.452786478872	16
8	5185	618.903261210411	17
8	5195	622.481972982384	18
8	5197	624.775846550872	19
8	5207	627.883873160715	18
8	5227	630.703002139218	17
8	5232	630.751443905456	16
8	5254	634.089640925315	17
8	5274	637.448915562373	16
8	5291	640.081575913797	17
8	5296	640.966216507953	16
8	5301	640.977435196796	15
8	5308	641.124888975479	14
8	5341	642.562636868866	13
8	5361	643.177132619021	12
8	5365	643.177825073224	13
8	5375	644.38736552845	14
8	5377	645.490198857002	15
8	5379	646.389232644501	16
8	5386	646.936059515795	17
8	5392	647.087784628341	18
8	5408	647.727388892351	17
8	5433	648.456664862539	16
8	5439	648.732480360022	17
8	5502	656.374127029729	18
8	5557	666.531700095263	17
8	5569	668.446752546602	18
8	5581	671.735048733986	19
8	5586	672.43660985353	18
8	5593	672.532417402532	19
8	5613	674.100202680172	18
8	5630	677.129188289746	19
8	5655	684.15346791416	18
8	5662	684.355746105654	19
8	5677	684.776278236807	18
8	5687	685.04514921133	17
8	5697	686.117564917483	16
8	5709	688.090696269499	17
8	5719	688.703045351862	16
8	5729	689.454616419034	15
8	5734	689.528615064976	14
8	5751	691.11392047701	15
8	5753	692.231295513607	16
8	5763	692.684110822192	15
8	5773	692.885168844826	14
8	5780	694.10788635485	15
8	5787	700.118058917181	16
8	5797	700.943177064785	15
8	5804	702.572326228431	16
8	5813	703.630014347642	17
8	5821	704.005226009336	16
8	5841	704.823377731953	15
8	5851	704.98748274157	14
8	5863	706.23466569415	15
8	5865	706.942996365388	16
8	5925	713.102942181687	15
8	5970	714.448116885197	14
8	5987	715.292573681349	15
8	5994	715.558908472896	16
8	6001	717.062739526447	17
8	6026	721.519656917916	16
8	6033	721.754355241733	17
8	6043	722.814878269039	16
8	6048	722.950785044746	15
8	6058	723.270299605039	14
8	6063	723.277627806175	13
8	6068	723.412058239511	12
8	6083	723.84431178421	11
8	6100	724.423899589502	12
8	6107	726.256374043705	13
8	6112	728.363194035009	12
8	6119	728.999618962844	13
8	6126	729.305618192048	14
8	6133	729.954449786862	15
8	6173	733.604945536953	14
8	6178	733.669964545047	13
8	6185	734.28709231777	14
8	6199	734.577240913522	13
8	6204	734.598117444095	12
8	6217	734.691700444892	11
8	6240	735.008490771999	10
8	6245	735.096634276358	9
8	6277	736.882339051974	10
8	6284	737.739174220568	11
8	6286	737.93861323912	12
8	6288	738.188342313748	13
8	6290	739.287800416344	14
8	6292	740.186204646468	15
8	6294	741.443238488667	16
8	6301	743.004614817523	17
8	6311	746.586824999448	16
8	6338	748.936259934161	17
8	6343	749.854025968306	16
8	6347	749.977384543676	17
8	6382	757.314630783591	18
8	6417	761.128400521493	17
8	6436	762.703416951133	18
8	6454	763.309900802379	17
8	6479	766.087639170535	16
8	6486	766.184801685332	17
8	6488	766.656598573991	18
8	6498	769.484741526252	17
8	6540	777.931883762658	18
8	6542	779.407562282073	19
8	6552	780.915764349156	18
8	6567	781.217747674427	17
8	6597	783.218674204894	16
8	6614	786.165031230502	17
8	6671	800.267145522138	18
8	6676	800.948105553838	17
8	6696	803.800743694189	16
8	6718	804.530137042317	17
8	6734	805.236380526985	18
8	6787	812.225075829807	19
8	6797	813.284701573598	18
8	6802	813.337829232981	17
8	6817	814.072392955052	16
8	6824	814.145707625114	15
8	6832	814.357972738398	14
8	6837	814.534920773258	13
8	6842	814.567833441662	12
8	6847	814.571262588191	11
8	6851	814.576902480327	12
8	6866	814.751655568534	13
8	6878	815.285111852174	12
8	6882	815.286637821187	13
8	6903	816.353137802729	12
8	6913	816.648246693487	11
8	6920	816.795334390961	12
8	6922	817.113796958863	13
8	6924	817.300292432825	14
8	6926	818.025932807336	15
8	6928	819.792135273875	16
8	6940	820.97829520891	17
8	6947	821.490561005356	16
8	6957	821.855721725292	15
8	6987	824.129707615355	16
8	7037	826.235924177887	15
8	7042	826.303453657266	14
8	7054	827.027379766702	15
8	7056	827.660016023046	16
8	7058	827.72262684139	17
8	7063	833.305644439245	16
8	7125	836.533422933021	17
8	7135	839.119581408464	16
8	7142	839.365995005028	17
8	7187	841.431921972037	16
8	7212	844.226768550795	15
8	7224	844.381116823266	14
8	7244	845.321550888479	15
8	7256	847.478043035093	16
8	7286	852.768527892424	15
8	7296	853.544102372541	14
8	7305	853.970591284971	15
8	7310	854.022055683338	14
8	7315	854.073981252941	13
8	7330	854.918016095757	14
8	7332	855.33175812814	15
8	7337	855.869460484167	14
8	7348	856.228428779639	15
8	7351	856.247480072041	14
8	7356	856.372639266706	13
8	7364	856.57276809327	12
8	7371	857.028298155863	13
8	7375	857.274927041062	14
8	7385	859.262872672443	15
8	7412	861.528760932951	14
8	7420	861.682651596699	13
8	7425	861.684879416287	12
8	7435	862.030583820879	11
8	7442	862.684891506097	12
8	7444	863.124794844392	13
8	7446	863.284764054295	14
8	7453	864.47595669603	15
8	7458	865.666533580291	14
8	7462	865.779780402353	15
8	7495	867.055000128286	14
8	7502	867.342899502489	15
8	7507	867.742355593345	14
8	7512	867.771010772252	13
8	7517	867.784654955762	12
8	7536	868.433866275671	13
8	7544	869.115392477284	12
8	7554	869.50287888458	11
8	7559	869.548634692989	10
8	7566	870.116237168852	11
8	7568	870.484000429884	12
8	7578	871.550033783602	11
8	7588	872.10350193503	10
8	7610	874.0344083247	11
8	7612	874.873643804225	12
8	7629	876.148255072074	13
8	7634	876.382366596848	12
8	7651	877.640594958814	13
8	7673	880.362992006491	14
8	7675	883.552943206672	15
8	7677	887.265605209407	16
8	7679	887.412424456373	17
8	7681	888.339711352736	18
8	7683	888.755078132297	19
8	7708	897.432610184424	18
8	7713	897.499778042457	17
8	7720	901.681107089406	18
8	7722	901.877593796407	19
8	7747	908.549714635433	18
8	7752	908.741089014294	17
8	7757	909.014844559478	16
8	7764	909.526576281035	17
8	7769	910.007406078712	16
8	7774	910.054138560039	15
8	7789	911.705609514026	14
8	7806	912.685951339696	15
8	7818	913.511692532087	16
8	7835	915.248944027258	15
8	7875	918.330386508063	16
8	7885	919.043766912745	15
8	7892	919.249276223166	16
8	7899	919.51022176093	15
8	7904	919.607852461442	14
8	7925	920.250880139555	15
8	7946	920.824827747363	14
8	7950	920.945722489303	15
8	7995	923.308923898853	16
8	8025	927.16294559968	17
8	8027	928.542262259749	18
8	8044	933.410420483006	19
8	8048	933.457061931308	20
8	8056	935.89742279036	19
8	8063	937.510585103428	20
8	8088	940.47766842873	19
8	8098	940.779199948737	18
8	8108	941.523712088092	17
8	8113	941.855135474123	16
8	8128	943.729050825649	15
8	8145	944.497141499841	16
8	8192	951.522968225279	17
8	8199	952.596326053515	18
8	8204	953.006866811058	17
8	8226	955.784976394036	18
8	8235	956.632970708536	19
8	8240	956.861758035514	20
8	8265	965.424152724349	19
8	8295	968.930216662859	18
8	8327	971.77119956086	19
8	8332	972.124282212282	18
8	8352	975.291544494124	17
8	8359	975.51458128589	18
8	8404	981.66552354673	17
8	8414	981.889556991698	16
8	8426	982.998416844993	17
8	8438	989.353405803883	18
8	8460	996.343329423269	19
8	8475	996.640341199992	18
8	8510	999.220036025997	17
8	8517	1003.079104776667	18
8	8542	1004.41790614054	17
8	8557	1004.902157159677	16
8	8569	1005.705578108177	17
8	8574	1005.968296991274	16
8	8604	1007.856824958318	15
8	8609	1007.927737692733	14
8	8621	1009.616993927689	15
8	8643	1013.739747772876	16
8	8655	1017.24781628691	17
8	8685	1022.398731049088	16
8	8707	1022.799587694112	17
8	8727	1023.445265640355	16
8	8742	1024.203490835911	15
8	8752	1024.808709797139	14
8	8767	1025.230032271419	13
8	8771	1025.254357929481	14
8	8786	1026.672248917424	15
8	8791	1026.835176975048	14
8	8806	1027.263454048966	13
8	8816	1027.553010450655	12
8	8856	1029.656733550031	11
8	8866	1029.779025022688	10
8	8873	1029.934851238079	11
8	8880	1030.388396186201	12
8	8890	1032.357156621784	11
8	8895	1032.371848531097	10
8	8912	1032.918717248001	11
8	8917	1033.167622177315	10
8	8927	1033.756360810787	9
8	8934	1034.153818033446	10
8	8939	1034.331387786454	9
8	8961	1035.415077695198	10
8	8971	1035.671244051862	9
8	8983	1036.100426847027	10
8	8985	1036.25368265825	11
8	8987	1037.482995854277	12
8	8989	1037.489503171639	13
8	8994	1038.766405961137	12
8	8999	1038.833219212997	11
8	9004	1038.877404242593	10
8	9011	1039.305385705019	11
8	9018	1039.618037421761	12
8	9028	1043.01497863029	11
8	9033	1043.074710090669	10
8	9042	1043.65999553148	11
8	9052	1044.380106426452	12
8	9054	1044.431470231153	13
8	9064	1045.629943597608	12
8	9076	1046.146232771082	13
8	9080	1046.260675150958	14
8	9090	1046.624549838432	15
8	9092	1046.713955564093	16
8	9138	1053.549505608938	17
8	9144	1053.57954052658	16
8	9156	1053.982743578218	15
8	9181	1055.534281705913	16
8	9186	1056.019065863358	15
8	9198	1056.575021736886	14
8	9202	1056.775777112332	15
8	9210	1057.682765755588	16
8	9232	1062.660960916987	17
8	9239	1065.66094460467	18
8	9241	1066.024582355025	19
8	9256	1067.338007037991	18
8	9261	1067.46657961114	17
8	9278	1068.785638726745	18
8	9285	1071.702496999639	17
8	9290	1071.720793223282	16
8	9298	1071.986252965219	15
8	9333	1074.540660567766	14
8	9345	1078.74339293082	15
8	9352	1081.433844071665	16
8	9359	1083.196172596491	17
8	9374	1084.58375691853	16
8	9378	1084.600598482549	17
8	9403	1087.174128870523	18
8	9413	1087.418388453205	17
8	9425	1088.977898838124	18
8	9427	1089.48849257104	19
8	9447	1092.025874028569	18
8	9462	1092.556668414731	17
8	9482	1094.112839946894	16
8	9509	1097.507785921369	17
8	9526	1099.873948239745	18
8	9528	1100.090353970549	19
8	9555	1103.456918428223	20
8	9580	1108.459954474438	19
8	9647	1115.151726384891	20
8	9659	1115.540552676223	19
8	9676	1116.868619829932	20
8	9689	1123.407481213974	19
8	9699	1123.607990292041	18
8	9739	1129.452837416217	17
8	9744	1129.45384707141	16
8	9756	1129.990842422626	15
8	9761	1129.997208543408	14
8	9766	1130.096509056384	13
8	9778	1130.698123290081	14
8	9780	1130.799376461126	15
8	9790	1131.573719775038	16
8	9792	1133.122106203659	17
8	9807	1134.240460576728	16
8	9812	1134.348583264722	15
8	9822	1137.212090689924	14
8	9834	1138.228648253404	15
8	9836	1139.001107687448	16
8	9838	1139.182591120258	17
8	9840	1140.714485207948	18
8	9842	1141.869721190326	19
8	9847	1144.485169621814	18