version 2
run Multitask30-12-20150106-11:37:58-288
attr configname Multitask30
attr datetime 20150106-11:37:58
attr experiment Multitask30
attr inifile omnetpp.ini
attr iterationvars ""
attr iterationvars2 $repetition=12
attr measurement ""
attr network Multitask
attr processid 288
attr repetition 12
attr replication #12
attr resultdir results
attr runnumber 12
attr seedset 12

vector 8  Multitask.allocateQ2  queueLength:vector  ETV
attr interpolationmode  sample-hold
attr title  "queue length, vector"
vector 11  Multitask.queue3  queueLength:vector  ETV
attr interpolationmode  sample-hold
attr title  "queue length, vector"
vector 13  Multitask.queue3  busy:vector  ETV
attr interpolationmode  sample-hold
attr title  "server busy state, vector"
vector 15  Multitask.queue4  queueLength:vector  ETV
attr interpolationmode  sample-hold
attr title  "queue length, vector"
vector 17  Multitask.queue4  busy:vector  ETV
attr interpolationmode  sample-hold
attr title  "server busy state, vector"
vector 19  Multitask.queue5  queueLength:vector  ETV
attr interpolationmode  sample-hold
attr title  "queue length, vector"
vector 21  Multitask.queue5  busy:vector  ETV
attr interpolationmode  sample-hold
attr title  "server busy state, vector"
vector 23  Multitask.queue6  queueLength:vector  ETV
attr interpolationmode  sample-hold
attr title  "queue length, vector"
vector 25  Multitask.queue6  busy:vector  ETV
attr interpolationmode  sample-hold
attr title  "server busy state, vector"
vector 27  Multitask.queue7  queueLength:vector  ETV
attr interpolationmode  sample-hold
attr title  "queue length, vector"
vector 29  Multitask.queue7  busy:vector  ETV
attr interpolationmode  sample-hold
attr title  "server busy state, vector"
vector 30  Multitask.resourceCPU  amount:vector  ETV
attr interpolationmode  sample-hold
attr title  "available resource, vector"
vector 12  Multitask.queue3  queueingTime:vector  ETV
attr interpolationmode  none
attr title  "queueing time at dequeue, vector"
attr unit  s
vector 28  Multitask.queue7  queueingTime:vector  ETV
attr interpolationmode  none
attr title  "queueing time at dequeue, vector"
attr unit  s
vector 20  Multitask.queue5  queueingTime:vector  ETV
attr interpolationmode  none
attr title  "queueing time at dequeue, vector"
attr unit  s
vector 16  Multitask.queue4  queueingTime:vector  ETV
attr interpolationmode  none
attr title  "queueing time at dequeue, vector"
attr unit  s
vector 24  Multitask.queue6  queueingTime:vector  ETV
attr interpolationmode  none
attr title  "queueing time at dequeue, vector"
attr unit  s
vector 9  Multitask.allocateQ2  queueingTime:vector  ETV
attr interpolationmode  none
attr title  "queueing time at dequeue, vector"
attr unit  s
vector 0  Multitask.sink  lifeTime:vector  ETV
attr interpolationmode  none
attr title  "lifetime of arrived jobs, vector"
attr unit  s
vector 1  Multitask.sink  totalQueueingTime:vector  ETV
attr interpolationmode  none
attr title  "the total time spent in queues by arrived jobs, vector"
attr unit  s
vector 4  Multitask.sink  queuesVisited:vector  ETV
attr interpolationmode  none
attr title  "the total number of queues visited by arrived jobs, vector"
vector 3  Multitask.sink  totalServiceTime:vector  ETV
attr interpolationmode  none
attr title  "the total time spent  by arrived jobs, vector"
attr unit  s
vector 2  Multitask.sink  totalDelayTime:vector  ETV
attr interpolationmode  none
attr title  "the total time spent in delay nodes by arrived jobs, vector"
attr unit  s
vector 5  Multitask.sink  delaysVisited:vector  ETV
attr interpolationmode  none
attr title  "the total number of delays visited by arrived jobs, vector"
vector 6  Multitask.sink  generation:vector  ETV
attr interpolationmode  none
attr title  "the generation of the arrived jobs, vector"
0	13119	1416.869241640462	1416.8692416405
0	13196	1426.050229456787	1426.0502294568
0	13217	1426.552339153634	1426.5523391536
0	13223	1426.716565300886	1426.7165653009
0	13229	1426.729589913257	1426.7295899133
0	13270	1429.881091926214	1429.8810919262
0	13303	1431.687124232611	1431.6871242326
0	13319	1439.842266045747	1439.8422660457
0	13365	1448.637920969962	1448.63792097
0	13371	1448.931604777945	1448.9316047779
0	13382	1449.605320342049	1449.605320342
0	13393	1449.811961389598	1449.8119613896
0	13399	1449.896170049044	1449.896170049
0	13427	1451.8552580864	1451.8552580864
0	13451	1455.267120073317	1455.2671200733
0	13487	1459.317625865751	1459.3176258658
0	13555	1468.181279341698	1468.1812793417
0	13561	1468.33310707675	1468.3331070767
0	13567	1468.446414552202	1468.4464145522
0	13678	1479.567907618694	1479.5679076187
0	13708	1486.618019088594	1486.6180190886
0	13735	1489.007321889989	1489.00732189
0	13777	1498.282701383997	1498.282701384
0	13789	1505.631042111514	1505.6310421115
0	13796	1506.687778327166	1506.6877783272
1	13119	1416.869241640462	1133.1698651976
1	13196	1426.050229456787	1131.0504246433
1	13217	1426.552339153634	1104.4238908729
1	13223	1426.716565300886	1162.1694425253
1	13229	1426.729589913257	1120.0956668653
1	13270	1429.881091926214	1092.6211846628
1	13303	1431.687124232611	1138.2183956046
1	13319	1439.842266045747	1123.2159670891
1	13365	1448.637920969962	1212.3734838956
1	13371	1448.931604777945	1141.7571607522
1	13382	1449.605320342049	1127.6138931893
1	13393	1449.811961389598	1115.1544554801
1	13399	1449.896170049044	1177.2866364663
1	13427	1451.8552580864	1118.9989384314
1	13451	1455.267120073317	1159.3579479798
1	13487	1459.317625865751	1163.5164084032
1	13555	1468.181279341698	1101.1671627386
1	13561	1468.33310707675	1084.88465132
1	13567	1468.446414552202	1173.5332850384
1	13678	1479.567907618694	1145.7308938246
1	13708	1486.618019088594	1208.5206919668
1	13735	1489.007321889989	1073.9272119515
1	13777	1498.282701383997	1205.9264782988
1	13789	1505.631042111514	1165.6174205331
1	13796	1506.687778327166	1106.8327056677
2	13119	1416.869241640462	0
2	13196	1426.050229456787	0
2	13217	1426.552339153634	0
2	13223	1426.716565300886	0
2	13229	1426.729589913257	0
2	13270	1429.881091926214	0
2	13303	1431.687124232611	0
2	13319	1439.842266045747	0
2	13365	1448.637920969962	0
2	13371	1448.931604777945	0
2	13382	1449.605320342049	0
2	13393	1449.811961389598	0
2	13399	1449.896170049044	0
2	13427	1451.8552580864	0
2	13451	1455.267120073317	0
2	13487	1459.317625865751	0
2	13555	1468.181279341698	0
2	13561	1468.33310707675	0
2	13567	1468.446414552202	0
2	13678	1479.567907618694	0
2	13708	1486.618019088594	0
2	13735	1489.007321889989	0
2	13777	1498.282701383997	0
2	13789	1505.631042111514	0
2	13796	1506.687778327166	0
3	13119	1416.869241640462	97.601276127422
3	13196	1426.050229456787	125.1877958543
3	13217	1426.552339153634	118.69192880184
3	13223	1426.716565300886	94.239378370872
3	13229	1426.729589913257	120.22654458541
3	13270	1429.881091926214	119.74139958641
3	13303	1431.687124232611	104.13203657052
3	13319	1439.842266045747	74.844483543674
3	13365	1448.637920969962	91.260561432799
3	13371	1448.931604777945	178.26790620826
3	13382	1449.605320342049	95.435428100653
3	13393	1449.811961389598	104.02299573484
3	13399	1449.896170049044	118.32899863065
3	13427	1451.8552580864	113.96110557676
3	13451	1455.267120073317	112.470947486
3	13487	1459.317625865751	98.211371066238
3	13555	1468.181279341698	98.716767648962
3	13561	1468.33310707675	114.54930937631
3	13567	1468.446414552202	122.28091984947
3	13678	1479.567907618694	128.24686783272
3	13708	1486.618019088594	126.58130832585
3	13735	1489.007321889989	147.14705087653
3	13777	1498.282701383997	104.11145836838
3	13789	1505.631042111514	119.73337105383
3	13796	1506.687778327166	147.19958202169
4	13119	1416.869241640462	45
4	13196	1426.050229456787	60
4	13217	1426.552339153634	44
4	13223	1426.716565300886	44
4	13229	1426.729589913257	78
4	13270	1429.881091926214	44
4	13303	1431.687124232611	35
4	13319	1439.842266045747	39
4	13365	1448.637920969962	52
4	13371	1448.931604777945	64
4	13382	1449.605320342049	31
4	13393	1449.811961389598	59
4	13399	1449.896170049044	64
4	13427	1451.8552580864	46
4	13451	1455.267120073317	48
4	13487	1459.317625865751	56
4	13555	1468.181279341698	42
4	13561	1468.33310707675	44
4	13567	1468.446414552202	62
4	13678	1479.567907618694	57
4	13708	1486.618019088594	62
4	13735	1489.007321889989	65
4	13777	1498.282701383997	29
4	13789	1505.631042111514	65
4	13796	1506.687778327166	77
5	13119	1416.869241640462	0
5	13196	1426.050229456787	0
5	13217	1426.552339153634	0
5	13223	1426.716565300886	0
5	13229	1426.729589913257	0
5	13270	1429.881091926214	0
5	13303	1431.687124232611	0
5	13319	1439.842266045747	0
5	13365	1448.637920969962	0
5	13371	1448.931604777945	0
5	13382	1449.605320342049	0
5	13393	1449.811961389598	0
5	13399	1449.896170049044	0
5	13427	1451.8552580864	0
5	13451	1455.267120073317	0
5	13487	1459.317625865751	0
5	13555	1468.181279341698	0
5	13561	1468.33310707675	0
5	13567	1468.446414552202	0
5	13678	1479.567907618694	0
5	13708	1486.618019088594	0
5	13735	1489.007321889989	0
5	13777	1498.282701383997	0
5	13789	1505.631042111514	0
5	13796	1506.687778327166	0
6	13119	1416.869241640462	0
6	13196	1426.050229456787	0
6	13217	1426.552339153634	0
6	13223	1426.716565300886	0
6	13229	1426.729589913257	0
6	13270	1429.881091926214	0
6	13303	1431.687124232611	0
6	13319	1439.842266045747	0
6	13365	1448.637920969962	0
6	13371	1448.931604777945	0
6	13382	1449.605320342049	0
6	13393	1449.811961389598	0
6	13399	1449.896170049044	0
6	13427	1451.8552580864	0
6	13451	1455.267120073317	0
6	13487	1459.317625865751	0
6	13555	1468.181279341698	0
6	13561	1468.33310707675	0
6	13567	1468.446414552202	0
6	13678	1479.567907618694	0
6	13708	1486.618019088594	0
6	13735	1489.007321889989	0
6	13777	1498.282701383997	0
6	13789	1505.631042111514	0
6	13796	1506.687778327166	0
8	0	0	0
8	114	3.338354032139	1
8	116	3.501772859323	2
8	118	4.315189913679	3
8	120	4.665447560911	4
8	135	5.834207299419	3
8	139	5.90990934708	4
8	154	7.132025833961	5
8	161	7.629877152041	6
8	163	7.630105494359	7
8	165	7.705419735069	8
8	167	9.316155059128	9
8	169	11.270043017888	10
8	171	12.859127134559	11
8	173	12.944598970065	12
8	175	13.472647870215	13
8	195	15.895800112844	12
8	220	17.03540745813	11
8	252	17.716495556784	12
8	257	17.820569969846	11
8	301	20.666213306456	12
8	314	22.411618344974	11
8	326	23.097593321397	12
8	331	23.224094720999	11
8	343	25.101876949908	12
8	347	26.291129513802	13
8	380	28.348247138525	12
8	389	28.864319679297	13
8	392	28.870802810192	12
8	404	30.222538331903	13
8	406	31.453775158712	14
8	408	31.454065474082	15
8	410	31.496302640393	16
8	412	32.707028271594	17
8	422	35.125525266744	16
8	427	35.162963197964	15
8	452	36.35402941377	14
8	462	36.52394226495	13
8	477	37.170917892345	12
8	497	37.591932864962	11
8	514	40.529368107873	12
8	516	41.133534258498	13
8	536	41.559469795032	12
8	558	43.045490332239	13
8	600	46.880764409621	14
8	602	47.515572224527	15
8	604	47.644935428575	16
8	609	48.324040911138	15
8	616	48.755818837773	16
8	618	50.659048229812	17
8	620	50.922113024535	18
8	622	51.294121425367	19
8	624	51.384452973446	20
8	639	55.049359682607	19
8	654	56.076293957919	18
8	669	56.737617366626	17
8	691	57.774876479413	16
8	695	57.893780148999	17
8	706	58.961536447861	16
8	746	60.503158510104	15
8	763	61.685650919657	16
8	775	63.498421337598	17
8	777	63.592683701434	18
8	779	65.063710228193	19
8	784	65.978856042468	18
8	789	66.040180983876	17
8	796	66.245243056448	18
8	833	68.187733836504	17
8	868	71.268345177902	18
8	878	72.225175879479	17
8	885	72.843508559247	18
8	892	73.875428552857	19
8	897	75.778635891692	18
8	922	76.605759100041	17
8	932	76.707147761432	16
8	937	76.760832585271	15
8	961	78.665497321363	16
8	981	78.917068651622	15
8	986	78.93248033702	14
8	991	79.00368532307	13
8	996	79.042218926477	12
8	1004	79.115869392879	11
8	1009	79.346018431971	10
8	1018	80.158221817625	11
8	1036	81.601168490411	10
8	1048	82.222113039161	11
8	1062	83.322190915698	12
8	1070	83.747170401612	11
8	1079	83.973892580763	12
8	1092	84.618098856125	11
8	1099	84.829241894129	12
8	1109	85.79487998443	11
8	1131	86.434909424483	12
8	1153	87.235995107468	13
8	1173	88.44489133829	12
8	1178	88.53224924285	11
8	1188	88.878020567448	10
8	1197	89.218509782173	11
8	1200	89.295835359482	10
8	1207	89.591732552206	11
8	1209	89.795869708399	12
8	1211	89.972631932261	13
8	1228	91.317521914758	12
8	1243	91.989132597794	13
8	1245	92.062026869501	14
8	1247	92.123713426615	15
8	1257	92.497278408247	14
8	1274	93.194219479346	13
8	1279	93.21974267888	12
8	1284	93.412233081736	11
8	1291	93.578844843259	10
8	1298	93.679316530903	9
8	1305	93.826212727059	10
8	1311	93.849731007542	9
8	1323	94.023336200885	10
8	1326	94.199810354021	9
8	1333	94.462249671507	8
8	1340	94.762621166652	9
8	1365	96.057484633572	10
8	1369	96.235598145819	11
8	1374	96.349588941905	12
8	1391	98.048560228736	13
8	1426	101.709220464629	12
8	1438	102.300640737954	13
8	1442	104.621706303054	14
8	1467	109.543508294166	15
8	1479	112.567247526538	16
8	1484	112.850320886025	15
8	1499	113.398445579656	14
8	1506	115.520645621757	15
8	1518	117.226837087761	16
8	1520	117.29452556697	17
8	1550	123.217464929879	16
8	1572	129.578153865134	17
8	1577	130.255239330195	16
8	1584	130.634073367774	17
8	1601	133.176461120958	18
8	1606	133.456623623912	17
8	1616	133.819231554156	16
8	1621	133.848195181088	15
8	1628	136.230830968732	16
8	1630	136.896573067913	17
8	1649	140.546701166896	18
8	1662	141.108438301924	17
8	1669	141.340898833703	18
8	1689	143.228336355526	17
8	1709	147.635679648254	16
8	1718	148.257458640808	17
8	1726	148.734914967592	16
8	1735	148.785682819319	17
8	1745	150.722364162833	18
8	1747	151.088582602677	19
8	1769	151.995726771985	18
8	1789	152.853555276537	17
8	1797	152.903720239884	16
8	1817	153.287075335203	15
8	1837	154.184566017553	14
8	1849	154.681841939709	15
8	1861	157.752899724338	16
8	1936	169.044452034569	15
8	1943	169.082863259727	16
8	1980	172.511525539533	17
8	1987	173.761666550254	18
8	1991	174.048542539255	19
8	2049	177.869825106044	18
8	2059	181.406081834172	17
8	2089	182.534982741084	16
8	2101	183.491082289553	17
8	2106	185.383494110431	16
8	2123	186.298377635337	15
8	2137	186.88262099336	16
8	2143	187.040034367103	15
8	2153	188.412676765915	14
8	2195	191.514558982634	15
8	2202	191.963264770598	16
8	2204	192.191266927604	17
8	2224	199.307229645325	16
8	2231	199.633696361472	17
8	2238	203.744813275425	18
8	2243	204.321796805059	17
8	2248	204.418024392324	16
8	2253	204.481872986636	15
8	2260	205.676752227027	16
8	2265	206.443650003746	15
8	2269	206.71281494312	16
8	2279	207.379745032929	17
8	2309	213.085508034252	16
8	2321	214.078522323391	17
8	2323	215.71463418366	18
8	2345	216.943409284303	19
8	2352	217.264383639883	20
8	2597	244.555634261349	19
8	2617	246.606277603412	18
8	2622	246.618829552682	17
8	2637	247.731339670755	16
8	2644	248.18183022471	17
8	2646	255.371014290268	18
8	2663	259.25495112003	19
8	2665	259.294868689621	20
8	2690	262.232507565032	19
8	2705	263.812752606279	18
8	2780	268.457703051275	17
8	2812	270.000910859319	18
8	2832	274.414931367389	17
8	2836	274.438110516969	18
8	2851	277.569356098061	19
8	2876	281.874792022486	18
8	2886	282.374443733155	17
8	2891	282.383560493883	16
8	2908	284.726971173845	15
8	2936	286.593886351	14
8	2943	287.546100178787	15
8	2945	288.34935590134	16
8	2957	289.389346722081	17
8	2959	291.931445499851	18
8	2984	295.782510541777	17
8	3011	301.067979238524	18
8	3016	304.017514157244	17
8	3026	304.337779412611	16
8	3043	307.323839338314	17
8	3073	314.827158151719	16
8	3085	316.570531409059	17
8	3087	316.78696426301	18
8	3112	320.299518356336	17
8	3117	320.409040225656	16
8	3139	324.686500545615	17
8	3141	326.552484003943	18
8	3146	327.559894712736	17
8	3151	327.568473222862	16
8	3158	329.751030247681	17
8	3160	332.592170685954	18
8	3167	333.329066375237	19
8	3197	336.206631511399	18
8	3202	336.291454406368	17
8	3229	340.400697577226	18
8	3244	341.118136725923	17
8	3249	341.33187305614	16
8	3256	343.240098723618	17
8	3288	345.966400452296	18
8	3295	346.803652007449	19
8	3304	347.874276520131	20
8	3334	348.941055210293	19
8	3349	350.365593776799	20
8	3419	368.290948215603	19
8	3444	369.952662033796	18
8	3459	370.863374475228	17
8	3479	372.103632027424	16
8	3501	372.730247702136	17
8	3508	373.579713986171	18
8	3545	375.591434259374	19
8	3547	378.81934732159	20
8	3567	389.952746511319	19
8	3577	390.126930146395	18
8	3582	390.204284064777	17
8	3597	392.597769557735	16
8	3604	392.631955923528	17
8	3619	393.337588072987	16
8	3646	394.334594294065	15
8	3664	394.98535303435	14
8	3668	394.988745922598	15
8	3676	395.461551720041	14
8	3683	395.978814375144	15
8	3725	402.429889058786	16
8	3727	402.922898286128	17
8	3729	409.522892871717	18
8	3731	409.687127360149	19
8	3746	413.402761492772	18
8	3753	413.607462341252	19
8	3773	414.387420343903	18
8	3778	414.393880104526	17
8	3785	415.762437536583	18
8	3789	416.363982219376	19
8	3819	423.402330502904	20
8	3896	436.085391220942	19
8	3921	437.69133561303	18
8	3964	442.802225001141	17
8	3968	442.814397772528	18
8	3976	443.331219812729	17
8	3980	443.348505371433	18
8	3983	443.399839931169	17
8	3998	443.801885427385	16
8	4009	444.22343942006	17
8	4017	444.305257126435	16
8	4095	449.750678126046	15
8	4110	450.418936082752	14
8	4125	454.481220830153	13
8	4134	454.762771289525	14
8	4147	456.636520792962	13
8	4157	457.007611389957	12
8	4167	458.634805638469	11
8	4174	460.640911323485	12
8	4176	460.740825468509	13
8	4181	463.574531515137	12
8	4188	464.243693192926	13
8	4190	464.362378005935	14
8	4197	466.74987857848	13
8	4220	467.549609948465	12
8	4239	468.919376056083	13
8	4242	469.022270079694	12
8	4264	470.753386841034	13
8	4268	471.47932926214	14
8	4280	471.747513491962	15
8	4290	474.137234971016	16
8	4312	480.373869496422	17
8	4319	486.004710334499	18
8	4321	487.82353879474	19
8	4336	493.65011691164	18
8	4361	494.875906080564	17
8	4366	495.072805578342	16
8	4370	495.112331911952	17
8	4390	495.696807330118	18
8	4407	501.249024418869	19
8	4409	502.177321838984	20
8	4459	509.766630491473	19
8	4476	511.468904151774	20
8	4481	512.231470823425	19
8	4486	512.255503517181	18
8	4496	512.793380211055	17
8	4506	513.110182862818	16
8	4536	514.125554133561	15
8	4551	514.396415606893	14
8	4565	514.72786489353	13
8	4593	515.935146408125	12
8	4608	516.76266442387	13
8	4625	518.188572048535	14
8	4630	518.344177332878	13
8	4639	518.731398228813	14
8	4654	519.623165467514	15
8	4676	521.848017333595	16
8	4693	522.561095463108	17
8	4745	524.637450029232	18
8	4755	526.164239769905	17
8	4787	528.747961201026	18
8	4789	528.764142901016	19
8	4791	529.156293789396	20
8	4796	529.916604319065	19
8	4811	531.108197294357	18
8	4853	533.628649957449	17
8	4888	536.439668985695	18
8	4898	537.014829469113	17
8	4910	537.696889266581	18
8	4915	538.931268461591	17
8	4930	540.256553496154	16
8	4934	540.351823206291	17
8	4939	541.193021553741	18
8	4956	543.655672157575	19
8	5003	548.676514300174	20
8	5023	551.883228592198	19
8	5043	553.670704403046	18
8	5075	560.990719161988	19
8	5090	565.316143414056	18
8	5097	565.482858796497	17
8	5102	565.585435509509	16
8	5117	566.075881310668	17
8	5122	568.828418173361	16
8	5127	569.032111741608	15
8	5132	569.376150801732	14
8	5149	571.282502159721	15
8	5171	572.831663348827	16
8	5188	577.27536566568	17
8	5190	577.678605748058	18
8	5210	581.079943625031	17
8	5262	587.642118728003	18
8	5292	591.175394535607	17
8	5307	591.749270044428	16
8	5327	592.488812694844	15
8	5332	592.660944832063	14
8	5374	595.032014398574	15
8	5394	600.479744759736	14
8	5401	600.754699041712	15
8	5403	600.926082221341	16
8	5405	603.642917171024	17
8	5410	605.647986332255	16
8	5420	605.786817886257	15
8	5424	605.810122508516	16
8	5434	606.562102971715	17
8	5439	609.764311032274	16
8	5464	610.879309518683	15
8	5469	610.93044783791	14
8	5509	614.462849176276	13
8	5514	614.584763703908	12
8	5521	614.721502107832	13
8	5533	616.687567575472	14
8	5540	617.232447425932	15
8	5545	617.29792738174	14
8	5555	618.083775659927	13
8	5567	618.730571118637	12
8	5599	619.488886540157	13
8	5606	619.61762831454	14
8	5611	620.413223053153	15
8	5675	627.528278776779	16
8	5688	627.933920235115	15
8	5700	628.49846700386	16
8	5712	630.55038612885	17
8	5724	632.193833353049	16
8	5731	632.560130984012	15
8	5735	632.649179130857	16
8	5737	632.716852450989	17
8	5740	632.833906693002	16
8	5766	633.295632775931	15
8	5771	633.29572414823	14
8	5777	633.304928142573	15
8	5803	633.890658586978	14
8	5835	634.689076163784	13
8	5839	634.693975599923	14
8	5863	635.325506113371	13
8	5871	635.485455022325	12
8	5889	635.859400424393	13
8	5894	636.57458069644	14
8	5896	636.733697349539	15
8	5921	639.43657996916	14
8	5926	639.570670242366	13
8	5951	641.384671288124	12
8	5958	641.868437526332	13
8	5968	642.668246516362	12
8	5975	642.782860230734	11
8	5982	642.991965771405	10
8	5986	643.023941921035	11
8	6004	644.715646651377	12
8	6009	648.191843903784	13
8	6011	648.681823186212	14
8	6028	652.439719389284	15
8	6038	653.334287441112	14
8	6055	654.761336513535	15
8	6080	655.775453883895	14
8	6085	655.784805742723	13
8	6089	655.788676323258	14
8	6099	656.655779984341	15
8	6101	656.859582679424	16
8	6103	657.459594905055	17
8	6105	658.583353404696	18
8	6120	659.907812449781	17
8	6124	660.007513150721	18
8	6142	661.330421466905	17
8	6179	668.665819812922	18
8	6199	671.723018648915	17
8	6254	673.708267735549	16
8	6259	673.721320171875	15
8	6274	675.745180781084	14
8	6279	675.751238243515	13
8	6291	675.929908404143	14
8	6296	678.914521223387	13
8	6308	679.438233638336	14
8	6310	680.875901186519	15
8	6312	680.998776011432	16
8	6322	681.478477758632	15
8	6327	681.498722855567	14
8	6352	682.851372116423	13
8	6359	683.018864664106	14
8	6366	683.157446107595	15
8	6376	685.943875179425	14
8	6381	686.096627989837	13
8	6390	686.431072738682	14
8	6410	688.331392962139	15
8	6412	689.398168880319	16
8	6414	689.938224837982	17
8	6416	690.439002240197	18
8	6418	692.57725315259	19
8	6428	696.441200980193	18
8	6433	696.494908806132	17
8	6438	696.533791119889	16
8	6445	697.529913077539	17
8	6447	698.051537313283	18
8	6449	699.732597715129	19
8	6459	703.127197914767	18
8	6469	704.035027914238	17
8	6486	705.588811588023	18
8	6491	705.769338819424	17
8	6498	708.691022371005	18
8	6518	712.856051239117	17
8	6525	712.959864278663	18
8	6535	713.748353157722	17
8	6570	715.646197957112	16
8	6575	715.666553867113	15
8	6582	715.925348956672	16
8	6609	720.214488573537	17
8	6621	721.29588248239	18
8	6623	721.418972460899	19
8	6625	721.774366697329	20
8	6657	725.159575678564	19
8	6682	726.1721570508	20
8	6722	742.104982140925	19
8	6742	744.080402896052	18
8	6804	747.153765015709	19
8	6811	754.241701951522	20
8	6821	755.781998449339	19
8	6826	756.070389184904	18
8	6843	756.54064132072	19
8	6868	760.380487425934	18
8	6885	765.37760860019	19
8	6890	766.523092144686	18
8	6895	766.531941460737	17
8	6907	767.669187605431	18
8	6917	768.953929643593	17
8	6924	770.430257095582	18
8	6929	770.717811242728	17
8	6936	772.466367979822	18
8	6938	775.365467453123	19
8	6945	778.141793123676	20
8	6982	781.407153394851	19
8	6989	781.714633695155	18
8	7000	782.019451175226	17
8	7010	782.730673914808	16
8	7024	785.839252186726	17
8	7027	786.188221940511	16
8	7032	786.215380587853	15
8	7039	786.345091562996	16
8	7051	787.278571379319	17
8	7066	788.812219160534	16
8	7071	788.873494123364	15
8	7083	789.117336106346	14
8	7091	789.192739006185	13
8	7103	791.082335238788	14
8	7107	791.112766016766	15
8	7119	793.199988232651	16
8	7137	793.7706012238	15
8	7144	795.427031426155	16
8	7146	798.311503323085	17
8	7148	798.852805788696	18
8	7160	800.207417359896	19
8	7195	811.536137083107	18
8	7210	812.140466129485	17
8	7217	812.578070437988	18
8	7219	814.352967812481	19
8	7329	825.457878508479	18
8	7334	825.459711326184	17
8	7384	833.061946336252	16
8	7404	835.43898511874	15
8	7411	835.667950094937	16
8	7416	835.846133875538	15
8	7441	837.134040645949	14
8	7447	837.263980342502	15
8	7465	838.385086183149	16
8	7482	839.705354606587	17
8	7484	841.071971068183	18
8	7494	841.910296875429	17
8	7504	842.544673538315	16
8	7536	844.60410044202	17
8	7541	844.684732586959	16
8	7551	845.274894665765	15
8	7556	845.386170952403	14
8	7568	846.483338733246	15
8	7570	847.169673455275	16
8	7572	847.86373802987	17
8	7577	848.327393417121	16
8	7602	850.646298563169	15
8	7609	851.09981969668	16
8	7664	853.467260984444	15
8	7674	853.825876470043	14
8	7679	854.089907844859	13
8	7699	855.302857897658	12
8	7714	856.068243736274	11
8	7726	856.966260910472	12
8	7731	857.363994238354	11
8	7745	857.842301654618	12
8	7758	858.349319851198	11
8	7785	859.620245703285	12
8	7787	860.853885000084	13
8	7792	862.063388334409	12
8	7802	862.350471279675	11
8	7812	862.775110679814	10
8	7827	864.015603297827	9
8	7834	864.609155459235	10
8	7844	865.084800123329	9
8	7851	866.297283624699	10
8	7855	866.427676395608	11
8	7860	866.695282888959	12
8	7867	867.501956736147	13
8	7871	867.531609376534	14
8	7876	867.640523458996	13
8	7886	868.182885001155	14
8	7902	869.936589626198	15
8	7913	870.848546490477	14
8	7920	871.156624607198	15
8	7930	873.058169544644	14
8	7935	873.110399134707	13
8	7945	873.186667095964	12
8	7965	873.86311639827	11
8	7970	873.875447259289	10
8	7975	873.968396015259	9
8	7980	874.121969276637	8
8	7995	874.576215545133	7
8	8002	874.694127699817	8
8	8014	876.119813257992	9
8	8016	876.17812789612	10
8	8018	876.192175579349	11
8	8025	878.573209650895	12
8	8027	879.480285023372	13
8	8029	880.423204030074	14
8	8031	881.501695840328	15
8	8043	882.2660752428	16
8	8053	883.566546969979	15
8	8063	884.064370894356	14
8	8070	884.526465431497	15
8	8080	885.08283500998	14
8	8087	885.36526054478	15
8	8094	886.08783192984	16
8	8104	886.342674524068	15
8	8111	886.512100941081	16
8	8118	886.743584079329	15
8	8133	887.671165651144	16
8	8138	888.763357243177	15
8	8143	888.840876548828	14
8	8165	890.136150340938	15
8	8175	890.767720786728	14
8	8182	894.706265422425	15
8	8189	895.283561789674	16
8	8203	895.937441303094	17
8	8208	896.353886356956	18
8	8223	899.992633665794	17
8	8250	902.154094810477	18
8	8262	902.654644611105	19
8	8272	903.127794815514	18
8	8319	910.769689592182	19
8	8339	914.36447985016	18
8	8358	919.34960650253	19
8	8373	926.090770045918	20
8	8383	929.054577210408	19
8	8448	937.593704530232	18
8	8463	938.001380794744	17
8	8473	938.115927100846	16
8	8478	938.259122665738	15
8	8483	938.528807310068	14
8	8503	940.044364815911	13
8	8510	942.036863251252	14
8	8512	943.068061583048	15
8	8522	944.729140112806	14
8	8542	945.289669913804	13
8	8559	945.685804441257	14
8	8566	945.871870707427	15
8	8568	946.328826784099	16
8	8573	946.372140315494	15
8	8595	947.101289151686	14
8	8600	947.171992123735	13
8	8607	947.204606940345	12
8	8617	947.514773312191	11
8	8640	948.634941387143	10
8	8650	948.927363978938	9
8	8655	948.936361774433	8
8	8662	949.030380260407	7
8	8670	949.232518970414	6
8	8678	949.424006580661	5
8	8683	949.428231344359	4
8	8690	949.727515138507	5
8	8697	950.164129679887	6
8	8699	950.327905131246	7
8	8704	950.787125270513	6
8	8709	950.903800294715	5
8	8721	951.229895013176	6
8	8735	951.767920330319	7
8	8740	952.628016933435	8
8	8742	952.705318729168	9
8	8747	953.008534040629	8
8	8769	954.040587685172	9
8	8771	954.656601275269	10
8	8773	955.316151006659	11
8	8775	956.529812588488	12
8	8785	957.119997717919	11
8	8790	957.203563539074	10
8	8797	957.223652921576	11
8	8799	957.457771653247	12
8	8801	957.805561551285	13
8	8803	958.049361563487	14
8	8805	959.194438455252	15
8	8807	959.385081532308	16
8	8824	963.811693127104	17
8	8834	964.53703181627	16
8	8841	966.470696125056	17
8	8871	973.608846263844	16
8	8898	974.60134398847	17
8	8920	976.115901458123	18
8	8927	977.716306936504	19
8	8952	981.845493562003	18
8	8969	982.98889698111	19
8	9004	989.38443036673	18
8	9036	995.347276487327	19
8	9046	995.649060942714	18
8	9066	997.343145798125	17
8	9073	997.391354865379	18
8	9075	997.458580028207	19
8	9080	998.2150254349	18
8	9120	999.996824895998	17
8	9135	1000.4295096726	16
8	9157	1003.440306877578	17
8	9164	1003.993555633485	18
8	9184	1006.185855205838	17
8	9191	1006.37482255452	18
8	9213	1009.776359324803	19
8	9228	1014.813753226195	18
8	9235	1015.228572840632	19
8	9300	1029.77397596756	18
8	9324	1031.747186758156	19
8	9327	1031.932043368624	18
8	9332	1031.93286171348	17
8	9337	1032.135801486123	16
8	9352	1033.121649170114	15
8	9364	1033.93553901344	16
8	9368	1034.009833053392	17
8	9378	1036.169027142942	18
8	9398	1038.841364563636	17
8	9420	1042.1974047819	18
8	9440	1045.766135208349	17
8	9447	1046.665979557333	18
8	9449	1050.87739549242	19
8	9479	1055.407985169794	18
8	9504	1059.17579850429	17
8	9529	1063.674597801499	16
8	9534	1063.67753815545	15
8	9541	1063.843401296151	16
8	9543	1064.633318902194	17
8	9545	1065.993619488117	18
8	9550	1066.556470584242	17
8	9565	1067.16360401369	16
8	9572	1067.218429299375	15
8	9577	1067.229491437561	14
8	9592	1067.428007818195	13
8	9597	1067.472694298871	12
8	9612	1068.711646970585	13
8	9619	1070.768104178273	14
8	9621	1071.430430854965	15
8	9633	1072.795771337463	16
8	9650	1075.939110169315	17
8	9660	1083.550892590575	16
8	9665	1083.584548861383	15
8	9670	1083.633673452945	14
8	9674	1083.67040582125	15
8	9679	1084.495344976913	16
8	9681	1085.181859163625	17
8	9683	1087.517038617257	18
8	9685	1089.966634375403	19
8	9705	1100.098517188444	18
8	9737	1103.021311109781	17
8	9745	1103.084568429832	16
8	9755	1103.748553141918	15
8	9762	1103.862123269844	16
8	9782	1106.183623864799	15
8	9789	1106.291591768483	14
8	9812	1107.734258488928	13
8	9819	1107.771856716011	14
8	9829	1108.334434736923	13
8	9839	1108.557710103941	12
8	9864	1109.12248259076	11
8	9874	1109.26227223878	10
8	9878	1109.643230494807	11
8	9888	1110.398511899894	12
8	9915	1112.178489679406	13
8	9924	1113.15112090967	14
8	9944	1114.869079391821	15
8	9954	1115.857225892147	14
8	9961	1116.3000348594	15
8	9981	1118.457624290224	14
8	9993	1120.543575253754	15
8	10003	1122.134825740201	14
8	10008	1122.137257369875	13
8	10030	1123.444808561847	14
8	10060	1126.382632950316	13
8	10080	1127.733811920873	12
8	10087	1127.891550404535	13
8	10112	1128.92110883777	12
8	10136	1129.588588650787	11