version 2
run Multitask30-13-20150106-11:37:58-920
attr configname Multitask30
attr datetime 20150106-11:37:58
attr experiment Multitask30
attr inifile omnetpp.ini
attr iterationvars ""
attr iterationvars2 $repetition=13
attr measurement ""
attr network Multitask
attr processid 920
attr repetition 13
attr replication #13
attr resultdir results
attr runnumber 13
attr seedset 13

vector 8  Multitask.allocateQ2  queueLength:vector  ETV
attr interpolationmode  sample-hold
attr title  "queue length, vector"
vector 11  Multitask.queue3  queueLength:vector  ETV
attr interpolationmode  sample-hold
attr title  "queue length, vector"
vector 13  Multitask.queue3  busy:vector  ETV
attr interpolationmode  sample-hold
attr title  "server busy state, vector"
vector 15  Multitask.queue4  queueLength:vector  ETV
attr interpolationmode  sample-hold
attr title  "queue length, vector"
vector 17  Multitask.queue4  busy:vector  ETV
attr interpolationmode  sample-hold
attr title  "server busy state, vector"
vector 19  Multitask.queue5  queueLength:vector  ETV
attr interpolationmode  sample-hold
attr title  "queue length, vector"
vector 21  Multitask.queue5  busy:vector  ETV
attr interpolationmode  sample-hold
attr title  "server busy state, vector"
vector 23  Multitask.queue6  queueLength:vector  ETV
attr interpolationmode  sample-hold
attr title  "queue length, vector"
vector 25  Multitask.queue6  busy:vector  ETV
attr interpolationmode  sample-hold
attr title  "server busy state, vector"
vector 27  Multitask.queue7  queueLength:vector  ETV
attr interpolationmode  sample-hold
attr title  "queue length, vector"
vector 29  Multitask.queue7  busy:vector  ETV
attr interpolationmode  sample-hold
attr title  "server busy state, vector"
vector 30  Multitask.resourceCPU  amount:vector  ETV
attr interpolationmode  sample-hold
attr title  "available resource, vector"
vector 12  Multitask.queue3  queueingTime:vector  ETV
attr interpolationmode  none
attr title  "queueing time at dequeue, vector"
attr unit  s
vector 28  Multitask.queue7  queueingTime:vector  ETV
attr interpolationmode  none
attr title  "queueing time at dequeue, vector"
attr unit  s
vector 20  Multitask.queue5  queueingTime:vector  ETV
attr interpolationmode  none
attr title  "queueing time at dequeue, vector"
attr unit  s
vector 16  Multitask.queue4  queueingTime:vector  ETV
attr interpolationmode  none
attr title  "queueing time at dequeue, vector"
attr unit  s
vector 24  Multitask.queue6  queueingTime:vector  ETV
attr interpolationmode  none
attr title  "queueing time at dequeue, vector"
attr unit  s
vector 9  Multitask.allocateQ2  queueingTime:vector  ETV
attr interpolationmode  none
attr title  "queueing time at dequeue, vector"
attr unit  s
vector 0  Multitask.sink  lifeTime:vector  ETV
attr interpolationmode  none
attr title  "lifetime of arrived jobs, vector"
attr unit  s
vector 1  Multitask.sink  totalQueueingTime:vector  ETV
attr interpolationmode  none
attr title  "the total time spent in queues by arrived jobs, vector"
attr unit  s
vector 4  Multitask.sink  queuesVisited:vector  ETV
attr interpolationmode  none
attr title  "the total number of queues visited by arrived jobs, vector"
vector 3  Multitask.sink  totalServiceTime:vector  ETV
attr interpolationmode  none
attr title  "the total time spent  by arrived jobs, vector"
attr unit  s
vector 2  Multitask.sink  totalDelayTime:vector  ETV
attr interpolationmode  none
attr title  "the total time spent in delay nodes by arrived jobs, vector"
attr unit  s
vector 5  Multitask.sink  delaysVisited:vector  ETV
attr interpolationmode  none
attr title  "the total number of delays visited by arrived jobs, vector"
vector 6  Multitask.sink  generation:vector  ETV
attr interpolationmode  none
attr title  "the generation of the arrived jobs, vector"
0	12786	1572.050275786952	1572.050275787
0	12802	1572.491146238804	1572.4911462388
0	12830	1579.634626423615	1579.6346264236
0	12917	1587.236651749606	1587.2366517496
0	12928	1587.512511302437	1587.5125113024
0	12934	1587.631782397007	1587.631782397
0	12945	1587.852476584329	1587.8524765843
0	12966	1588.889198286094	1588.8891982861
0	12982	1592.552820259222	1592.5528202592
0	13073	1633.831401907818	1633.8314019078
0	13089	1635.474494830011	1635.47449483
0	13115	1637.814886651541	1637.8148866515
0	13146	1643.448694083252	1643.4486940833
0	13162	1644.773598081975	1644.773598082
0	13247	1656.04437872403	1656.044378724
0	13274	1659.904831659304	1659.9048316593
0	13282	1660.032382709085	1660.0323827091
0	13296	1660.246048629258	1660.2460486293
0	13327	1661.19676934415	1661.1967693442
0	13358	1663.056641025656	1663.0566410257
0	13410	1667.301323394743	1667.3013233947
0	13465	1675.684733744613	1675.6847337446
0	13477	1676.355573424472	1676.3555734245
0	13484	1680.767396413101	1680.7673964131
0	13491	1686.439644332636	1686.4396443326
1	12786	1572.050275786952	1262.1543730211
1	12802	1572.491146238804	1196.5899428649
1	12830	1579.634626423615	1224.0037985999
1	12917	1587.236651749606	1230.6274820898
1	12928	1587.512511302437	1210.5919158901
1	12934	1587.631782397007	1288.1080782627
1	12945	1587.852476584329	1227.9604894552
1	12966	1588.889198286094	1282.9087544291
1	12982	1592.552820259222	1229.3455288272
1	13073	1633.831401907818	1292.0902986285
1	13089	1635.474494830011	1297.7138529618
1	13115	1637.814886651541	1293.5166977582
1	13146	1643.448694083252	1327.9878475341
1	13162	1644.773598081975	1255.1515521259
1	13247	1656.04437872403	1306.1057981787
1	13274	1659.904831659304	1299.9104456286
1	13282	1660.032382709085	1344.4956698811
1	13296	1660.246048629258	1368.5512493081
1	13327	1661.19676934415	1300.9600964381
1	13358	1663.056641025656	1387.0117332212
1	13410	1667.301323394743	1281.6309714355
1	13465	1675.684733744613	1397.5523738814
1	13477	1676.355573424472	1383.5315334431
1	13484	1680.767396413101	1375.6031518169
1	13491	1686.439644332636	1318.1180676811
2	12786	1572.050275786952	0
2	12802	1572.491146238804	0
2	12830	1579.634626423615	0
2	12917	1587.236651749606	0
2	12928	1587.512511302437	0
2	12934	1587.631782397007	0
2	12945	1587.852476584329	0
2	12966	1588.889198286094	0
2	12982	1592.552820259222	0
2	13073	1633.831401907818	0
2	13089	1635.474494830011	0
2	13115	1637.814886651541	0
2	13146	1643.448694083252	0
2	13162	1644.773598081975	0
2	13247	1656.04437872403	0
2	13274	1659.904831659304	0
2	13282	1660.032382709085	0
2	13296	1660.246048629258	0
2	13327	1661.19676934415	0
2	13358	1663.056641025656	0
2	13410	1667.301323394743	0
2	13465	1675.684733744613	0
2	13477	1676.355573424472	0
2	13484	1680.767396413101	0
2	13491	1686.439644332636	0
3	12786	1572.050275786952	134.49850060665
3	12802	1572.491146238804	147.72928953307
3	12830	1579.634626423615	114.22692261787
3	12917	1587.236651749606	151.00617789452
3	12928	1587.512511302437	139.51596445643
3	12934	1587.631782397007	140.7777532354
3	12945	1587.852476584329	108.87314487039
3	12966	1588.889198286094	109.1807871213
3	12982	1592.552820259222	100.79768734975
3	13073	1633.831401907818	170.03637533115
3	13089	1635.474494830011	165.82249929197
3	13115	1637.814886651541	129.27292661052
3	13146	1643.448694083252	110.98217677392
3	13162	1644.773598081975	164.68664843862
3	13247	1656.04437872403	130.32741130682
3	13274	1659.904831659304	157.26855653388
3	13282	1660.032382709085	145.84953599806
3	13296	1660.246048629258	105.35010137058
3	13327	1661.19676934415	74.343106511073
3	13358	1663.056641025656	80.193570046673
3	13410	1667.301323394743	54.62822353777
3	13465	1675.684733744613	141.79759697816
3	13477	1676.355573424472	95.967336535256
3	13484	1680.767396413101	76.389881774353
3	13491	1686.439644332636	164.46478170023
4	12786	1572.050275786952	42
4	12802	1572.491146238804	42
4	12830	1579.634626423615	41
4	12917	1587.236651749606	71
4	12928	1587.512511302437	36
4	12934	1587.631782397007	60
4	12945	1587.852476584329	41
4	12966	1588.889198286094	49
4	12982	1592.552820259222	35
4	13073	1633.831401907818	59
4	13089	1635.474494830011	44
4	13115	1637.814886651541	52
4	13146	1643.448694083252	42
4	13162	1644.773598081975	56
4	13247	1656.04437872403	45
4	13274	1659.904831659304	59
4	13282	1660.032382709085	58
4	13296	1660.246048629258	51
4	13327	1661.19676934415	21
4	13358	1663.056641025656	38
4	13410	1667.301323394743	34
4	13465	1675.684733744613	57
4	13477	1676.355573424472	33
4	13484	1680.767396413101	40
4	13491	1686.439644332636	63
5	12786	1572.050275786952	0
5	12802	1572.491146238804	0
5	12830	1579.634626423615	0
5	12917	1587.236651749606	0
5	12928	1587.512511302437	0
5	12934	1587.631782397007	0
5	12945	1587.852476584329	0
5	12966	1588.889198286094	0
5	12982	1592.552820259222	0
5	13073	1633.831401907818	0
5	13089	1635.474494830011	0
5	13115	1637.814886651541	0
5	13146	1643.448694083252	0
5	13162	1644.773598081975	0
5	13247	1656.04437872403	0
5	13274	1659.904831659304	0
5	13282	1660.032382709085	0
5	13296	1660.246048629258	0
5	13327	1661.19676934415	0
5	13358	1663.056641025656	0
5	13410	1667.301323394743	0
5	13465	1675.684733744613	0
5	13477	1676.355573424472	0
5	13484	1680.767396413101	0
5	13491	1686.439644332636	0
6	12786	1572.050275786952	0
6	12802	1572.491146238804	0
6	12830	1579.634626423615	0
6	12917	1587.236651749606	0
6	12928	1587.512511302437	0
6	12934	1587.631782397007	0
6	12945	1587.852476584329	0
6	12966	1588.889198286094	0
6	12982	1592.552820259222	0
6	13073	1633.831401907818	0
6	13089	1635.474494830011	0
6	13115	1637.814886651541	0
6	13146	1643.448694083252	0
6	13162	1644.773598081975	0
6	13247	1656.04437872403	0
6	13274	1659.904831659304	0
6	13282	1660.032382709085	0
6	13296	1660.246048629258	0
6	13327	1661.19676934415	0
6	13358	1663.056641025656	0
6	13410	1667.301323394743	0
6	13465	1675.684733744613	0
6	13477	1676.355573424472	0
6	13484	1680.767396413101	0
6	13491	1686.439644332636	0
8	0	0	0
8	113	4.160416248845	1
8	125	4.910932278682	2
8	127	6.04128098305	3
8	147	6.977738801389	2
8	152	6.990335497094	1
8	189	9.348145699409	2
8	191	9.348197014246	3
8	193	9.391563256431	4
8	195	9.81435652503	5
8	197	10.261428390608	6
8	199	10.844495376546	7
8	204	11.208239357621	6
8	231	12.801997430098	7
8	233	13.929626058443	8
8	235	14.212337182625	9
8	250	14.876595704241	8
8	254	14.939976596386	9
8	256	15.037383003547	10
8	264	15.228596750638	9
8	276	15.79982751168	10
8	278	17.388550795608	11
8	285	19.043802050756	12
8	287	19.620782372884	13
8	289	20.860592333783	14
8	291	22.237505982386	15
8	293	22.347646308977	16
8	295	23.596613729247	17
8	297	25.108846850517	18
8	312	29.347483259154	17
8	319	29.649858837796	18
8	324	29.67830325908	17
8	331	30.086394881854	18
8	353	31.297505303495	17
8	366	31.572633369707	16
8	376	31.624017856233	15
8	390	32.018289327934	14
8	398	32.051839719886	13
8	408	32.547951165316	14
8	420	33.740453967301	15
8	442	35.972528155697	16
8	447	38.857317409722	15
8	466	39.965555121869	16
8	471	40.184185904925	17
8	506	43.293978261256	16
8	521	46.757293928665	15
8	526	46.772959656549	14
8	548	48.535666534923	15
8	550	49.341493442208	16
8	552	50.187493630284	17
8	569	51.232367753685	16
8	597	52.612546855205	15
8	617	53.188232626654	14
8	627	53.85184623092	13
8	644	54.986889210776	14
8	646	55.123595564994	15
8	663	63.681365389242	14
8	681	65.767333247833	13
8	686	66.024216839238	12
8	706	67.047298803615	11
8	713	67.282514159395	12
8	720	69.611560249085	11
8	730	69.749100677073	10
8	742	70.005353400298	11
8	752	70.52095655427	12
8	764	71.596576066436	13
8	766	71.793815090485	14
8	771	71.82697589035	13
8	781	72.002537914086	12
8	786	72.421882739368	11
8	793	72.960780023883	12
8	795	73.435650984563	13
8	805	74.091256633443	12
8	817	75.565401859412	13
8	819	75.749622257113	14
8	826	78.260419149786	15
8	841	79.222102994005	14
8	848	79.444115444974	15
8	850	79.74081470978	16
8	877	89.836211287171	17
8	884	92.048916094222	18
8	894	94.908145139928	17
8	899	95.092415362629	16
8	903	95.13985082209	17
8	911	95.426683725946	16
8	948	99.308920830891	17
8	953	100.413085935918	16
8	958	100.42951220658	15
8	963	100.507069955454	14
8	968	100.545259739436	13
8	978	101.463409318711	12
8	985	101.62947176968	13
8	987	101.645080376422	14
8	989	101.91897968802	15
8	991	103.741279223491	16
8	993	105.104981532154	17
8	995	106.396442536684	18
8	1000	108.206010161123	17
8	1005	108.301970364608	16
8	1052	113.808808994139	17
8	1054	116.713309853191	18
8	1056	116.754978447773	19
8	1061	117.582754585362	18
8	1068	118.601455511259	19
8	1083	125.799138458358	18
8	1095	126.232333646741	19
8	1100	129.00077685877	18
8	1110	131.600542411837	17
8	1117	131.665730146948	18
8	1122	133.058505290494	17
8	1144	133.663154189776	16
8	1149	133.704914840128	15
8	1162	134.082229182843	14
8	1169	134.393747387554	15
8	1186	135.392949285136	16
8	1198	139.885742932688	17
8	1200	141.52423914546	18
8	1217	143.916212803309	19
8	1224	146.267962154227	20
8	1229	148.026734445709	19
8	1254	150.272905883459	18
8	1261	150.335962708986	17
8	1266	150.474082154556	16
8	1294	151.295999131375	15
8	1311	152.362318583162	16
8	1318	152.654931377406	15
8	1328	153.0931771388	14
8	1333	153.106621260427	13
8	1338	153.298980955923	12
8	1346	153.451066879919	11
8	1353	154.551459492469	12
8	1360	155.003738979085	13
8	1365	155.217011463946	12
8	1385	155.788530102698	11
8	1395	156.10293391026	10
8	1417	156.514465488785	11
8	1419	157.306296962934	12
8	1421	160.067587313911	13
8	1428	166.109272266966	14
8	1435	166.375673025526	15
8	1437	167.592853473673	16
8	1444	168.871394356868	17
8	1449	170.292700641194	16
8	1459	171.378365630812	15
8	1489	178.28780294147	14
8	1521	180.76415382554	13
8	1528	181.194501399355	14
8	1553	182.91359757121	15
8	1565	186.143539793944	16
8	1577	189.063903053803	17
8	1582	189.472259448678	16
8	1589	189.707771988408	17
8	1611	197.138853985551	18
8	1613	197.201839573402	19
8	1635	207.209417859515	20
8	1665	219.196855944197	19
8	1670	219.234655453229	18
8	1677	221.707570157984	19
8	1681	229.569255310868	20
8	1699	236.545842100805	19
8	1706	237.771786031668	20
8	1731	239.100247738045	19
8	1748	241.005147349713	20
8	1783	250.838519963814	19
8	1812	251.776767802552	20
8	1845	257.017723064315	19
8	1850	257.042660751086	18
8	1875	258.037968504326	17
8	1885	258.15248220741	16
8	1912	262.89569471911	17
8	1917	263.71012966307	16
8	1929	263.856086259467	17
8	1971	266.36627356334	16
8	1986	266.915084648675	15
8	1990	266.949473971303	16
8	1998	267.063044492998	15
8	2007	267.193547248705	16
8	2018	267.502613306284	15
8	2035	268.577055317347	16
8	2070	273.61471438476	15
8	2087	275.240233932928	16
8	2102	280.452134706604	15
8	2109	280.769830916478	16
8	2111	281.107949114032	17
8	2116	282.538067422717	16
8	2123	283.352350156144	17
8	2125	284.312356841402	18
8	2132	286.474226118308	19
8	2137	286.95022179162	18
8	2142	286.977956995828	17
8	2157	290.272539432285	16
8	2176	291.441946793526	17
8	2188	294.603673834991	18
8	2196	295.147522211752	17
8	2228	299.264193238062	18
8	2233	301.25404613092	17
8	2238	301.524834889038	16
8	2245	301.737297291354	17
8	2252	302.982997782048	18
8	2254	303.548978924762	19
8	2259	305.694430273114	18
8	2283	308.052721888958	19
8	2286	308.060213366397	18
8	2291	308.123245047118	17
8	2295	308.152003133685	18
8	2308	308.879616876923	17
8	2325	311.395971006297	18
8	2330	311.800472629446	17
8	2352	312.864087989054	16
8	2357	313.133717486775	15
8	2372	314.715022539827	16
8	2374	315.293644425588	17
8	2376	316.082722483378	18
8	2403	318.194847114983	19
8	2408	319.563017943702	18
8	2413	319.67636039438	17
8	2418	319.717424530977	16
8	2428	321.285189749561	15
8	2440	322.634745390415	16
8	2442	322.914634380654	17
8	2447	323.278384280262	16
8	2467	325.008329280344	15
8	2489	326.91777576656	16
8	2491	327.828593868394	17
8	2493	328.244216423328	18
8	2505	328.47522113515	17
8	2510	328.5448632871	16
8	2543	330.550358442221	15
8	2548	330.554447166507	14
8	2565	330.858068992319	15
8	2567	331.124667599602	16
8	2569	331.539083179649	17
8	2576	332.279128197594	18
8	2583	335.525530590962	19
8	2603	336.661476863867	18
8	2628	338.18955444665	17
8	2643	338.7034471815	16
8	2650	339.110311789283	17
8	2652	339.475371709368	18
8	2664	349.615388667883	19
8	2694	353.153161994979	18
8	2706	354.373095616374	19
8	2726	355.440833109773	18
8	2765	359.121758179275	19
8	2770	363.858063171994	20
8	2780	365.260778300882	19
8	2832	375.74595596691	20
8	2867	377.374714053883	19
8	2872	377.457980761741	18
8	2887	377.915791069986	17
8	2904	378.734545658761	18
8	2919	379.871400733292	17
8	2926	382.26784964845	18
8	2943	385.489286928997	19
8	2965	387.383279745257	20
8	2975	393.703248426911	19
8	3000	395.429347162942	18
8	3017	396.094558381544	17
8	3027	396.56067815858	18
8	3037	397.404326898457	17
8	3067	401.435710355859	16
8	3074	402.029177952975	17
8	3104	406.019829350119	16
8	3109	406.271829017522	15
8	3116	406.624889536166	16
8	3121	408.518816072564	15
8	3131	409.398549844974	14
8	3136	409.42539689628	13
8	3140	409.476571155221	14
8	3148	410.247095994319	13
8	3155	410.382779815244	14
8	3162	411.384596529033	15
8	3177	413.590672751394	14
8	3184	414.592938926145	15
8	3191	414.761091702305	16
8	3201	415.441389565679	15
8	3206	415.514960406919	14
8	3215	415.75924697177	15
8	3236	417.717065143342	16
8	3238	417.732147461874	17
8	3256	418.12465682636	16
8	3264	418.659630803652	15
8	3274	420.294610530689	16
8	3279	421.758037400064	15
8	3291	422.223336620706	16
8	3303	423.293949181081	17
8	3325	425.522210977145	18
8	3340	427.965374073437	17
8	3367	431.597365054668	18
8	3386	434.195992155675	17
8	3392	434.265274303517	18
8	3409	434.664810492315	17
8	3414	434.73165240039	16
8	3421	435.111090908591	15
8	3431	435.687020079593	16
8	3436	435.933660076049	15
8	3440	436.134074544731	16
8	3455	436.933396759132	17
8	3465	438.765626606553	16
8	3470	438.797145874113	15
8	3477	438.903951209222	16
8	3487	439.391526688023	15
8	3501	440.854539649437	16
8	3506	442.105955220743	17
8	3511	443.394419027313	16
8	3538	445.440570262771	15
8	3556	446.306289531332	14
8	3563	446.438315899822	15
8	3565	446.887573084839	16
8	3582	448.859344595692	17
8	3584	449.142312031561	18
8	3604	454.420792746647	17
8	3621	456.102049516344	18
8	3626	458.126762509578	17
8	3633	460.091326853048	18
8	3638	461.848291142385	17
8	3670	463.809094958131	16
8	3700	465.347752967559	15
8	3723	466.571949459884	14
8	3735	468.733673483751	15
8	3770	474.085576253101	14
8	3790	476.0524929506	13
8	3795	476.055151487727	12
8	3816	476.835984441943	13
8	3819	477.192143829592	12
8	3824	477.344888469498	11
8	3829	477.373944573998	10
8	3842	477.472732628564	9
8	3846	477.558819054008	10
8	3849	477.735114268756	9
8	3854	477.762203840521	8
8	3861	478.294589571074	9
8	3868	478.710223856153	10
8	3870	479.122053452463	11
8	3882	483.464668939518	12
8	3884	484.174950355176	13
8	3886	484.801498717791	14
8	3888	485.274083164526	15
8	3895	485.864761530641	16
8	3900	486.289840108309	15
8	3917	487.015312136916	16
8	3922	487.473351695754	15
8	3954	489.355049389709	16
8	3981	493.3330619336	17
8	4001	495.291983749943	16
8	4020	496.070861196256	17
8	4023	496.164287631551	16
8	4033	496.506893087649	15
8	4038	496.525854186938	14
8	4068	497.416195199736	13
8	4073	497.461840001069	12
8	4080	497.958657136822	13
8	4082	499.884196287057	14
8	4084	500.173802714519	15
8	4086	500.518858930751	16
8	4093	503.630501921787	15
8	4116	504.236409243097	14
8	4126	505.263672921936	13
8	4136	505.994679601141	12
8	4151	506.610897713059	11
8	4161	507.28452672163	10
8	4188	508.755391669875	11
8	4190	509.584207058875	12
8	4195	510.552367190601	11
8	4217	512.610080956196	12
8	4224	515.958245656091	13
8	4226	515.999959792483	14
8	4256	517.547959335973	13
8	4285	519.237741951177	14
8	4303	521.864142819937	13
8	4320	523.041465966694	14
8	4325	523.573192216555	13
8	4332	523.745827732693	14
8	4339	524.049034339728	15
8	4341	525.254987261505	16
8	4346	526.823277386718	15
8	4353	528.060858524597	16
8	4355	528.479404548496	17
8	4365	530.463295710079	16
8	4370	530.48642998207	15
8	4380	530.91358402184	14
8	4390	531.301336242283	13
8	4397	531.805872234725	14
8	4404	532.201784565135	15
8	4421	533.984214987392	16
8	4432	536.621155186604	17
8	4438	536.710934002483	16
8	4458	537.442253774456	15
8	4468	538.710247541533	14
8	4473	538.721587687269	13
8	4480	538.85333150361	14
8	4485	539.022312127044	13
8	4489	539.037459748288	14
8	4506	540.123227445271	15
8	4514	540.279476350705	14
8	4524	540.334324581724	13
8	4539	541.918308820168	12
8	4543	542.029756204804	13
8	4561	542.78473183899	12
8	4565	542.936319778259	13
8	4570	543.406163444791	14
8	4572	543.888411936268	15
8	4594	550.37535650948	16
8	4616	552.695293131646	17
8	4676	558.073032122883	16
8	4706	560.086526033411	15
8	4713	560.24517367186	14
8	4731	561.034974765284	13
8	4751	561.848504021283	12
8	4755	561.87714268135	13
8	4758	561.917191815032	12
8	4763	561.949046463697	11
8	4803	563.831890352657	10
8	4812	564.21342596169	11
8	4815	564.252442683824	10
8	4832	565.679626912848	11
8	4834	566.386242937347	12
8	4836	566.448481555273	13
8	4841	569.668319015101	12
8	4848	571.3446932753	13
8	4850	571.520284304667	14
8	4852	571.91878985376	15
8	4854	572.995352836585	16
8	4859	573.166435397711	15
8	4874	573.680288313928	14
8	4881	575.800451648084	15
8	4883	576.147640400255	16
8	4885	576.257863574731	17
8	4895	577.110612147182	16
8	4912	586.682577145003	17
8	4944	590.948341253386	18
8	4966	593.70408946062	19
8	4981	599.95755678	18
8	4996	601.030467787631	17
8	5001	601.153660229721	16
8	5006	601.270818642704	15
8	5026	603.003836518259	14
8	5033	604.248552789786	15
8	5035	605.517820077667	16
8	5040	608.378267207296	15
8	5052	608.935619203911	14
8	5060	609.089079853235	13
8	5070	609.554492228384	12
8	5074	609.578253185953	13
8	5076	609.621037997653	14
8	5086	609.970939169387	15
8	5093	612.511039303078	16
8	5105	614.266638542853	17
8	5115	614.728362668838	16
8	5119	614.84584872885	17
8	5127	615.599137219842	16
8	5157	617.707551616047	15
8	5179	618.676647079454	16
8	5181	618.679178831225	17
8	5188	618.967894300817	18
8	5193	619.23118027593	17
8	5215	623.982002121293	18
8	5227	624.659759649645	17
8	5242	626.187857964475	18
8	5297	632.784455056673	17
8	5309	636.920227936808	18
8	5321	638.100043280444	19
8	5338	638.871334853418	18
8	5351	639.409636008312	17
8	5356	639.509806748815	16
8	5363	639.684110567061	15
8	5393	640.634626628919	14
8	5448	645.764501212507	15
8	5458	646.505999603094	14
8	5489	648.871265690331	15
8	5512	650.181693352745	14
8	5527	650.486981378456	13
8	5539	651.185156643211	14
8	5549	651.960431693521	15
8	5551	652.054572696242	16
8	5556	652.421219960852	15
8	5563	652.590775856919	16
8	5567	653.074830379044	17
8	5575	653.774158509662	16
8	5585	654.20705348232	15
8	5622	655.100808694283	16
8	5649	657.060100728797	17
8	5651	657.413964611114	18
8	5656	657.439814848824	17
8	5665	657.50537669332	18
8	5673	657.671661208977	17
8	5717	659.445458974587	18
8	5720	659.487528977378	17
8	5724	659.528174253897	18
8	5757	661.831648182267	17
8	5772	664.428358669144	16
8	5794	666.788070480096	17
8	5796	667.589910291364	18
8	5808	669.674756852694	19
8	5840	674.493023985787	20
8	5875	675.626143483408	19
8	5885	676.980405606224	18
8	5905	678.87054674205	17
8	5910	678.890698093467	16
8	5917	679.75601012152	17
8	5937	680.420391397724	16
8	5944	680.620703150242	17
8	5969	686.962548297466	16
8	5979	687.192846099008	15
8	5989	687.364665062817	14
8	5996	689.147754941963	15
8	5998	689.939498570291	16
8	6000	690.193286702951	17
8	6027	695.283280196968	18
8	6032	696.886713802043	17
8	6039	697.316444421703	18
8	6064	698.175226219757	17
8	6074	698.898131290958	16
8	6081	700.772960831136	17
8	6101	703.862068941892	16
8	6106	703.870045557734	15
8	6111	704.022575912575	14
8	6128	704.70873771549	15
8	6133	704.876560288869	14
8	6137	704.99487023485	15
8	6139	705.08579760353	16
8	6142	705.116807105531	15
8	6147	705.156558585256	14
8	6159	706.094221414324	15
8	6169	706.756990127343	14
8	6194	709.523099274871	13
8	6218	712.341531681513	14
8	6228	713.76109663755	15
8	6230	714.021082545519	16
8	6243	714.484685907654	17
8	6269	717.082597350967	18
8	6271	717.161513904066	19
8	6386	749.965154923362	18
8	6398	750.369967233225	19
8	6425	760.272552131486	20
8	6430	762.332795586067	19
8	6440	763.054662208825	18
8	6460	764.976785406836	17
8	6472	768.478987175062	18
8	6497	771.307969404698	17
8	6532	773.663232957006	16
8	6547	775.095809364428	15
8	6557	776.426072736725	14
8	6564	776.854478134225	15
8	6566	777.342647284322	16
8	6573	779.651613403738	17
8	6593	783.045960890093	16
8	6605	784.708196255434	17
8	6619	787.20641542013	18
8	6622	787.2658053349	17
8	6661	788.688895440151	16
8	6684	790.835510723843	17
8	6701	792.7667208885	18
8	6706	793.066133334079	17
8	6720	794.331780197968	16
8	6724	794.44527424353	17
8	6727	794.635895958695	16
8	6735	794.929819645711	15
8	6749	795.337820950154	16
8	6777	796.764801395583	17
8	6791	797.906071912549	18
8	6804	798.510546709469	17
8	6814	798.542554390189	16
8	6833	801.237727101452	17
8	6836	801.391624312919	16
8	6880	805.190926270885	17
8	6883	805.21154898221	16
8	6900	806.296155086455	17
8	6930	808.838122708244	16
8	6947	810.637006905127	17
8	6957	810.973677672708	16
8	6967	811.26486228635	15
8	6974	811.272225850946	16
8	6976	812.487788292402	17
8	7006	819.173345636644	16
8	7018	821.294080697082	17
8	7030	822.101810513733	18
8	7037	822.383946368741	19
8	7052	824.088307354875	18
8	7072	825.085388819889	17
8	7077	825.094610999688	16
8	7109	827.047229689114	17
8	7114	827.421223768762	16
8	7119	827.51926509377	15
8	7139	830.600181180087	14
8	7159	830.927272173603	13
8	7179	832.806865043598	12
8	7186	832.965283096617	13
8	7196	833.220601652972	12
8	7208	833.470578986268	11
8	7217	833.661210745408	12
8	7220	833.681764199729	11
8	7230	833.888442768724	12
8	7245	834.3404050586	11
8	7270	834.70061289956	10
8	7282	835.28725182228	9
8	7286	835.303391446693	10
8	7301	836.078550249388	11
8	7303	836.083139556114	12
8	7306	836.177057566721	11
8	7310	836.19551451753	12
8	7325	837.411154991497	13
8	7335	838.271916590942	12
8	7339	838.335351038745	13
8	7352	839.168655236189	12
8	7377	839.950239306193	11
8	7381	840.010477428325	12
8	7384	840.094960856616	11
8	7411	841.609053107371	12
8	7413	842.161396113435	13
8	7420	842.436113947304	14
8	7448	844.284694125741	15
8	7450	844.344558498454	16
8	7459	844.726071930934	15
8	7471	845.19872534778	14
8	7484	845.413180846438	13
8	7494	846.730121823361	12
8	7501	847.169875437335	13
8	7511	847.882886057829	12
8	7528	849.450541768014	13
8	7530	849.63208557568	14
8	7569	862.596272431156	15
8	7574	863.052045694306	16
8	7576	863.531396397333	17
8	7578	863.581693369584	18
8	7588	867.065264213002	17
8	7595	867.258652582478	18
8	7620	871.630319712303	17
8	7625	871.767637998862	16
8	7660	874.506700783144	15
8	7672	874.740087602917	16
8	7677	875.136534743313	15
8	7721	876.334003702967	14
8	7731	876.728103283135	13
8	7744	877.62873905665	14
8	7751	878.270809303391	15
8	7753	878.857749884914	16
8	7755	881.686972881914	17
8	7765	883.1956148891	16
8	7782	883.575199260753	17
8	7794	884.796484481316	18
8	7814	885.373727276386	17
8	7824	885.685588213367	16
8	7831	885.881880923455	17
8	7838	888.818457661457	18
8	7855	892.958215975488	19
8	7880	897.065756776346	18
8	7892	897.593414551191	19
8	7924	900.730114348064	18
8	7929	900.740276734927	17
8	7954	902.127733346285	16
8	7964	902.4455253248	17
8	8001	907.946417111352	18
8	8018	910.779731993247	19
8	8023	913.073710325573	18
8	8030	913.143578280231	17
8	8078	916.85901259943	16
8	8098	918.247900265423	15
8	8108	919.329845841675	14
8	8130	920.960553162924	15
8	8132	921.487140717861	16
8	8152	923.861601888878	15
8	8179	925.200460220808	16
8	8188	926.268778247597	17
8	8206	927.921589057939	16
8	8231	929.346516855822	15
8	8248	931.344720764994	16
8	8260	935.488998987052	17
8	8275	935.943308469547	16
8	8300	939.062247341191	15
8	8307	941.839646686241	16
8	8321	945.830293451601	17
8	8324	946.001677980665	16
8	8334	946.11996019356	15
8	8374	957.837673515549	14
8	8379	958.063212405326	13
8	8386	958.245672018901	14
8	8388	958.531192502125	15
8	8393	959.850535086785	14
8	8403	961.450423482305	13
8	8410	961.827953255262	14
8	8444	963.567276066963	15
8	8446	963.608459312239	16
8	8449	963.77639690495	15
8	8456	964.00278277654	14
8	8474	964.543684886063	13
8	8501	968.128653387988	14
8	8513	971.422502374758	15
8	8515	972.201259999621	16
8	8536	977.292206359681	17
8	8542	977.545309478829	16
8	8571	979.923501697547	15
8	8604	981.040620151242	16
8	8631	984.685055592085	17
8	8637	985.096207347514	18
8	8643	985.435966608459	17
8	8648	985.436506222107	16
8	8653	985.685255564288	15
8	8660	985.733019829556	16
8	8675	986.827271414408	15
8	8695	987.595434414155	14
8	8704	988.206768295778	15
8	8709	988.710890693889	14
8	8744	989.629506374896	15
8	8754	989.909603245378	14
8	8764	990.076158300212	13
8	8771	990.936265818553	14
8	8786	992.71764868386	13
8	8803	995.758916603972	14
8	8805	997.224836590907	15
8	8820	998.002205404896	14
8	8850	1003.271997032073	13
8	8865	1005.132350644194	12
8	8870	1005.140954921765	11
8	8880	1005.303895623195	10
8	8884	1005.391614351666	11
8	8889	1005.522340844323	12
8	8911	1006.720856086121	13
8	8913	1006.734891781668	14
8	8918	1007.537860462053	13
8	8940	1009.644980296951	14
8	8950	1010.830027457139	13
8	8957	1011.5975803675	14
8	8969	1016.004957011741	15
8	8971	1016.641919264024	16
8	9028	1029.478782585169	17
8	9035	1032.45067115209	18
8	9040	1032.637816716146	17
8	9045	1032.639045018704	16
8	9054	1033.186399492634	17
8	9057	1033.210024712487	16
8	9064	1033.314097558846	15
8	9069	1033.361172329374	14
8	9079	1036.205089414693	15
8	9083	1036.624987241938	16
8	9086	1036.644479680346	15
8	9098	1037.271523969891	16
8	9100	1037.888749263731	17
8	9102	1037.923782211709	18
8	9112	1040.866318363494	17
8	9129	1041.572515534859	16
8	9137	1041.742003959374	15
8	9149	1042.652149761115	16
8	9151	1042.776134429413	17
8	9153	1043.31171041753	18
8	9155	1043.570633459689	19
8	9200	1050.742893047647	18
8	9205	1050.748672174764	17
8	9217	1051.929863302905	18
8	9254	1054.405933461247	17
8	9264	1054.563685190817	16
8	9279	1056.505505541562	17
8	9286	1059.451074966734	18
8	9288	1060.251594117419	19
8	9310	1074.426747543356	20
8	9315	1080.000203142296	19
8	9330	1086.387600631491	18
8	9335	1086.4228450123	17
8	9345	1086.824252393985	16
8	9350	1086.885356884725	15