version 2
run Multitask30-8-20150106-11:37:58-3232
attr configname Multitask30
attr datetime 20150106-11:37:58
attr experiment Multitask30
attr inifile omnetpp.ini
attr iterationvars ""
attr iterationvars2 $repetition=8
attr measurement ""
attr network Multitask
attr processid 3232
attr repetition 8
attr replication #8
attr resultdir results
attr runnumber 8
attr seedset 8

vector 8  Multitask.allocateQ2  queueLength:vector  ETV
attr interpolationmode  sample-hold
attr title  "queue length, vector"
vector 11  Multitask.queue3  queueLength:vector  ETV
attr interpolationmode  sample-hold
attr title  "queue length, vector"
vector 13  Multitask.queue3  busy:vector  ETV
attr interpolationmode  sample-hold
attr title  "server busy state, vector"
vector 15  Multitask.queue4  queueLength:vector  ETV
attr interpolationmode  sample-hold
attr title  "queue length, vector"
vector 17  Multitask.queue4  busy:vector  ETV
attr interpolationmode  sample-hold
attr title  "server busy state, vector"
vector 19  Multitask.queue5  queueLength:vector  ETV
attr interpolationmode  sample-hold
attr title  "queue length, vector"
vector 21  Multitask.queue5  busy:vector  ETV
attr interpolationmode  sample-hold
attr title  "server busy state, vector"
vector 23  Multitask.queue6  queueLength:vector  ETV
attr interpolationmode  sample-hold
attr title  "queue length, vector"
vector 25  Multitask.queue6  busy:vector  ETV
attr interpolationmode  sample-hold
attr title  "server busy state, vector"
vector 27  Multitask.queue7  queueLength:vector  ETV
attr interpolationmode  sample-hold
attr title  "queue length, vector"
vector 29  Multitask.queue7  busy:vector  ETV
attr interpolationmode  sample-hold
attr title  "server busy state, vector"
vector 30  Multitask.resourceCPU  amount:vector  ETV
attr interpolationmode  sample-hold
attr title  "available resource, vector"
vector 12  Multitask.queue3  queueingTime:vector  ETV
attr interpolationmode  none
attr title  "queueing time at dequeue, vector"
attr unit  s
vector 28  Multitask.queue7  queueingTime:vector  ETV
attr interpolationmode  none
attr title  "queueing time at dequeue, vector"
attr unit  s
vector 16  Multitask.queue4  queueingTime:vector  ETV
attr interpolationmode  none
attr title  "queueing time at dequeue, vector"
attr unit  s
vector 24  Multitask.queue6  queueingTime:vector  ETV
attr interpolationmode  none
attr title  "queueing time at dequeue, vector"
attr unit  s
vector 20  Multitask.queue5  queueingTime:vector  ETV
attr interpolationmode  none
attr title  "queueing time at dequeue, vector"
attr unit  s
vector 9  Multitask.allocateQ2  queueingTime:vector  ETV
attr interpolationmode  none
attr title  "queueing time at dequeue, vector"
attr unit  s
vector 0  Multitask.sink  lifeTime:vector  ETV
attr interpolationmode  none
attr title  "lifetime of arrived jobs, vector"
attr unit  s
vector 1  Multitask.sink  totalQueueingTime:vector  ETV
attr interpolationmode  none
attr title  "the total time spent in queues by arrived jobs, vector"
attr unit  s
vector 4  Multitask.sink  queuesVisited:vector  ETV
attr interpolationmode  none
attr title  "the total number of queues visited by arrived jobs, vector"
vector 3  Multitask.sink  totalServiceTime:vector  ETV
attr interpolationmode  none
attr title  "the total time spent  by arrived jobs, vector"
attr unit  s
vector 2  Multitask.sink  totalDelayTime:vector  ETV
attr interpolationmode  none
attr title  "the total time spent in delay nodes by arrived jobs, vector"
attr unit  s
vector 5  Multitask.sink  delaysVisited:vector  ETV
attr interpolationmode  none
attr title  "the total number of delays visited by arrived jobs, vector"
vector 6  Multitask.sink  generation:vector  ETV
attr interpolationmode  none
attr title  "the generation of the arrived jobs, vector"
0	12690	1591.419895897361	1591.4198958974
0	12711	1592.045089848317	1592.0450898483
0	12732	1597.221425053084	1597.2214250531
0	12760	1608.257149107668	1608.2571491077
0	12801	1612.380669094298	1612.3806690943
0	12812	1612.563891941572	1612.5638919416
0	12823	1613.314660180478	1613.3146601805
0	12829	1613.381710921535	1613.3817109215
0	12842	1620.082071532251	1620.0820715323
0	12893	1626.196832297415	1626.1968322974
0	12916	1627.304599476772	1627.3045994768
0	12930	1627.416167180451	1627.4161671805
0	12943	1628.31520376625	1628.3152037663
0	12949	1628.375084769498	1628.3750847695
0	13023	1633.154515417786	1633.1545154178
0	13054	1634.7099571358	1634.7099571358
0	13067	1635.27202402324	1635.2720240232
0	13073	1635.406958570612	1635.4069585706
0	13079	1635.427238536024	1635.427238536
0	13123	1639.773071514286	1639.7730715143
0	13133	1641.100470125815	1641.1004701258
0	13150	1645.916925043344	1645.9169250433
0	13172	1649.925936550282	1649.9259365503
0	13184	1652.632928266629	1652.6329282666
0	13246	1672.101733861972	1672.101733862
1	12690	1591.419895897361	1284.8071733868
1	12711	1592.045089848317	1351.2339052042
1	12732	1597.221425053084	1313.5467134272
1	12760	1608.257149107668	1329.0204104209
1	12801	1612.380669094298	1290.3317431797
1	12812	1612.563891941572	1261.3627880826
1	12823	1613.314660180478	1307.8131742369
1	12829	1613.381710921535	1309.6807597035
1	12842	1620.082071532251	1360.2384596799
1	12893	1626.196832297415	1362.1172253407
1	12916	1627.304599476772	1274.8567441184
1	12930	1627.416167180451	1244.7547647364
1	12943	1628.31520376625	1335.4011848637
1	12949	1628.375084769498	1379.4596460461
1	13023	1633.154515417786	1322.6727656216
1	13054	1634.7099571358	1370.0993895871
1	13067	1635.27202402324	1292.6229784683
1	13073	1635.406958570612	1354.0884996201
1	13079	1635.427238536024	1336.343760537
1	13123	1639.773071514286	1291.5701833926
1	13133	1641.100470125815	1336.9748569183
1	13150	1645.916925043344	1316.30247653
1	13172	1649.925936550282	1317.5932253022
1	13184	1652.632928266629	1312.7983528247
1	13246	1672.101733861972	1382.5663682389
2	12690	1591.419895897361	0
2	12711	1592.045089848317	0
2	12732	1597.221425053084	0
2	12760	1608.257149107668	0
2	12801	1612.380669094298	0
2	12812	1612.563891941572	0
2	12823	1613.314660180478	0
2	12829	1613.381710921535	0
2	12842	1620.082071532251	0
2	12893	1626.196832297415	0
2	12916	1627.304599476772	0
2	12930	1627.416167180451	0
2	12943	1628.31520376625	0
2	12949	1628.375084769498	0
2	13023	1633.154515417786	0
2	13054	1634.7099571358	0
2	13067	1635.27202402324	0
2	13073	1635.406958570612	0
2	13079	1635.427238536024	0
2	13123	1639.773071514286	0
2	13133	1641.100470125815	0
2	13150	1645.916925043344	0
2	13172	1649.925936550282	0
2	13184	1652.632928266629	0
2	13246	1672.101733861972	0
3	12690	1591.419895897361	129.29176956413
3	12711	1592.045089848317	44.617730690001
3	12732	1597.221425053084	135.81544549943
3	12760	1608.257149107668	157.52939920594
3	12801	1612.380669094298	107.9721082825
3	12812	1612.563891941572	69.738683373055
3	12823	1613.314660180478	96.507244141606
3	12829	1613.381710921535	129.91802163627
3	12842	1620.082071532251	119.49582690395
3	12893	1626.196832297415	121.10942034442
3	12916	1627.304599476772	166.41659095668
3	12930	1627.416167180451	206.78213072821
3	12943	1628.31520376625	89.858022136641
3	12949	1628.375084769498	113.7931242775
3	13023	1633.154515417786	131.34273230988
3	13054	1634.7099571358	159.39155073706
3	13067	1635.27202402324	116.13691210004
3	13073	1635.406958570612	94.027298400114
3	13079	1635.427238536024	93.456733187622
3	13123	1639.773071514286	136.97919419506
3	13133	1641.100470125815	97.423259670619
3	13150	1645.916925043344	124.26414071964
3	13172	1649.925936550282	128.79504673842
3	13184	1652.632928266629	101.29278038383
3	13246	1672.101733861972	125.98557519773
4	12690	1591.419895897361	59
4	12711	1592.045089848317	20
4	12732	1597.221425053084	56
4	12760	1608.257149107668	61
4	12801	1612.380669094298	37
4	12812	1612.563891941572	24
4	12823	1613.314660180478	37
4	12829	1613.381710921535	39
4	12842	1620.082071532251	52
4	12893	1626.196832297415	42
4	12916	1627.304599476772	59
4	12930	1627.416167180451	68
4	12943	1628.31520376625	44
4	12949	1628.375084769498	44
4	13023	1633.154515417786	56
4	13054	1634.7099571358	57
4	13067	1635.27202402324	49
4	13073	1635.406958570612	47
4	13079	1635.427238536024	38
4	13123	1639.773071514286	47
4	13133	1641.100470125815	46
4	13150	1645.916925043344	51
4	13172	1649.925936550282	53
4	13184	1652.632928266629	35
4	13246	1672.101733861972	50
5	12690	1591.419895897361	0
5	12711	1592.045089848317	0
5	12732	1597.221425053084	0
5	12760	1608.257149107668	0
5	12801	1612.380669094298	0
5	12812	1612.563891941572	0
5	12823	1613.314660180478	0
5	12829	1613.381710921535	0
5	12842	1620.082071532251	0
5	12893	1626.196832297415	0
5	12916	1627.304599476772	0
5	12930	1627.416167180451	0
5	12943	1628.31520376625	0
5	12949	1628.375084769498	0
5	13023	1633.154515417786	0
5	13054	1634.7099571358	0
5	13067	1635.27202402324	0
5	13073	1635.406958570612	0
5	13079	1635.427238536024	0
5	13123	1639.773071514286	0
5	13133	1641.100470125815	0
5	13150	1645.916925043344	0
5	13172	1649.925936550282	0
5	13184	1652.632928266629	0
5	13246	1672.101733861972	0
6	12690	1591.419895897361	0
6	12711	1592.045089848317	0
6	12732	1597.221425053084	0
6	12760	1608.257149107668	0
6	12801	1612.380669094298	0
6	12812	1612.563891941572	0
6	12823	1613.314660180478	0
6	12829	1613.381710921535	0
6	12842	1620.082071532251	0
6	12893	1626.196832297415	0
6	12916	1627.304599476772	0
6	12930	1627.416167180451	0
6	12943	1628.31520376625	0
6	12949	1628.375084769498	0
6	13023	1633.154515417786	0
6	13054	1634.7099571358	0
6	13067	1635.27202402324	0
6	13073	1635.406958570612	0
6	13079	1635.427238536024	0
6	13123	1639.773071514286	0
6	13133	1641.100470125815	0
6	13150	1645.916925043344	0
6	13172	1649.925936550282	0
6	13184	1652.632928266629	0
6	13246	1672.101733861972	0
8	0	0	0
8	146	5.147522579148	1
8	156	5.487885301151	2
8	163	5.629417433784	3
8	170	5.840763857933	4
8	172	6.508385317102	5
8	179	7.39556981129	6
8	181	7.568448549565	7
8	183	7.839169185665	8
8	185	8.104823848665	9
8	187	9.417921618917	10
8	189	9.468358526649	11
8	194	9.627745596584	10
8	201	12.090788687687	11
8	211	13.199963666949	10
8	218	13.219907859832	9
8	228	13.365414031689	8
8	236	13.627505266865	7
8	243	14.308548897097	8
8	247	14.527031284033	9
8	270	16.071370380664	8
8	284	16.333937057987	9
8	299	16.953296496111	10
8	314	18.241256378049	9
8	328	19.113506201655	10
8	340	19.370906338424	11
8	352	19.658030013257	12
8	362	20.340440867431	13
8	364	20.564173453713	14
8	368	20.669550506509	15
8	371	20.679885477015	14
8	391	21.305868189777	13
8	398	21.565402838938	12
8	423	26.096320501673	13
8	425	26.763835681669	14
8	432	30.348502391742	15
8	439	31.39535507639	16
8	441	32.054276159544	17
8	448	33.230578247085	18
8	470	34.590595193722	19
8	487	37.104643316677	20
8	497	38.61349175387	19
8	507	38.918728829861	18
8	519	40.490478545255	19
8	554	43.000170134912	18
8	573	43.538933008445	19
8	576	43.603575885736	18
8	633	47.936844975369	19
8	640	49.157884581042	20
8	667	55.300613282974	19
8	695	58.491603793637	18
8	720	63.069621805836	17
8	725	63.205746919915	16
8	732	63.379146496639	17
8	734	64.995735964806	18
8	736	67.754449537449	19
8	751	69.27871720173	18
8	756	69.336710008024	17
8	768	69.624270720082	18
8	775	72.356561636873	19
8	785	73.051091792485	18
8	825	78.551556694994	17
8	832	80.06312287911	18
8	854	84.732339847157	19
8	919	99.341904199738	18
8	969	102.032445488321	17
8	974	102.107814443103	16
8	1006	103.761301849244	17
8	1026	110.553188824084	16
8	1051	111.093777794583	15
8	1071	111.477827546065	14
8	1103	113.586438131272	15
8	1108	114.328230760379	14
8	1148	115.846999624402	13
8	1155	116.366937623134	14
8	1157	117.057151428985	15
8	1159	117.179041235587	16
8	1161	119.201243078296	17
8	1163	122.846772209428	18
8	1168	123.875031866829	17
8	1215	127.069907082358	16
8	1237	128.577558916767	17
8	1249	128.805500831098	18
8	1252	128.871177274876	17
8	1272	129.963793163605	16
8	1277	130.029489386211	15
8	1284	130.589080128836	16
8	1291	131.140756925392	17
8	1303	133.652961939838	16
8	1313	134.17378890836	15
8	1346	137.107433905473	14
8	1351	137.200816732185	13
8	1356	137.240183647748	12
8	1401	142.014306291965	11
8	1410	146.295395305615	12
8	1415	147.116377397456	13
8	1422	148.020636315683	14
8	1429	148.094671728559	15
8	1433	148.333338927813	16
8	1441	149.556213183535	15
8	1463	151.942518877299	16
8	1475	154.394676113271	17
8	1505	157.202556643084	16
8	1517	158.197560951656	17
8	1524	159.448396015661	18
8	1539	164.847091388689	17
8	1544	164.915038605738	16
8	1559	169.073118614091	15
8	1566	169.457222893394	16
8	1578	173.298748467857	17
8	1595	176.174733097651	18
8	1597	176.754812101445	19
8	1602	177.065171125521	18
8	1612	177.328549783852	17
8	1617	177.373654971798	16
8	1634	178.420502906107	17
8	1646	179.564921664738	18
8	1648	181.036560426782	19
8	1650	181.648692966937	20
8	1695	189.844358593155	19
8	1725	195.627597720602	18
8	1752	197.048280473975	17
8	1792	204.444377239865	18
8	1807	208.066338859565	17
8	1819	208.575878462304	18
8	1821	209.294696007688	19
8	1823	209.534933317785	20
8	1843	217.490525787183	19
8	1858	217.838507802441	18
8	1885	223.281509070132	19
8	1887	223.380793971251	20
8	1892	232.504076416241	19
8	1909	233.257083532492	18
8	1917	233.394719853671	17
8	1947	235.794681118886	16
8	1952	235.920213048332	15
8	1972	236.350519800383	14
8	1979	236.489271920804	13
8	2009	237.584288355661	14
8	2011	238.864512342932	15
8	2028	239.965100181708	14
8	2033	239.979196312046	13
8	2037	240.053535068174	14
8	2045	242.859609041396	15
8	2047	243.569380798344	16
8	2049	243.833319459744	17
8	2059	244.254673393565	16
8	2071	246.913557581371	17
8	2073	253.356633600391	18
8	2078	253.915019838829	17
8	2090	255.198050548223	18
8	2102	256.730462171447	19
8	2116	258.451776536035	20
8	2119	258.556734814038	19
8	2134	258.715629206121	18
8	2141	261.917688859091	19
8	2158	266.935290944608	20
8	2218	277.496838400007	19
8	2278	283.836727108939	18
8	2285	284.318184135106	19
8	2302	288.163120245632	20
8	2312	288.684503170794	19
8	2322	289.079535380371	18
8	2327	289.163050018562	17
8	2332	289.35935322003	16
8	2337	289.390144040613	15
8	2342	289.424067023005	14
8	2347	289.488383306553	13
8	2354	289.741750669594	14
8	2356	290.981865224812	15
8	2371	292.091937245816	14
8	2378	292.51305771581	15
8	2386	293.031801980978	16
8	2397	293.384643470172	17
8	2399	293.795250073356	18
8	2421	300.51779409777	19
8	2441	306.105222881844	18
8	2456	307.486320413906	17
8	2468	308.068668246464	18
8	2483	310.668975813338	17
8	2502	313.323219079608	18
8	2520	314.630365248116	17
8	2524	314.631364038466	18
8	2574	320.546455655929	19
8	2576	322.127729616001	20
8	2616	331.171738197859	19
8	2656	334.078310322173	18
8	2661	334.090000195474	17
8	2673	338.119144747256	18
8	2675	341.659315385626	19
8	2677	344.181702059115	20
8	2687	346.304957114334	19
8	2717	350.384247453266	18
8	2752	353.910705180257	17
8	2764	354.327639355213	16
8	2772	354.442117268198	15
8	2789	355.064745645899	14
8	2799	355.317719766751	13
8	2822	356.839383893575	12
8	2829	357.008071331706	13
8	2834	357.020651227575	12
8	2856	360.179161243197	13
8	2863	365.149107122206	14
8	2865	365.853375972484	15
8	2867	365.921303907839	16
8	2872	366.346045992963	15
8	2877	366.393873710162	14
8	2886	366.665294083108	15
8	2901	367.585707347095	16
8	2903	367.805390748719	17
8	2908	368.433937769294	16
8	2915	369.279476003376	17
8	2957	373.827564660037	18
8	2967	376.318240457515	17
8	2974	376.975493180458	18
8	3021	380.2495315604	17
8	3029	380.297872447686	16
8	3041	381.32274914871	17
8	3043	381.597534953413	18
8	3080	387.145555548409	19
8	3105	389.640433864303	18
8	3112	390.39720101603	19
8	3132	392.657495041911	18
8	3157	394.444486313422	17
8	3169	394.901785424522	18
8	3194	397.6177275873	17
8	3214	398.24134217743	16
8	3234	399.740424486068	15
8	3238	399.894569218039	16
8	3243	401.721158635921	17
8	3245	405.159582779578	18
8	3247	405.330973023872	19
8	3252	406.916984200734	18
8	3316	416.287136683471	19
8	3351	417.612452315495	18
8	3383	419.308529775985	17
8	3391	419.440660269721	16
8	3408	419.795994212895	15
8	3421	421.917908548037	16
8	3456	428.294483848692	15
8	3463	431.286400290099	16
8	3470	435.480505550176	17
8	3472	438.684593557372	18
8	3492	439.361031014829	17
8	3507	439.881756766211	16
8	3519	442.406238519703	17
8	3529	449.321529167488	16
8	3546	451.074657341004	17
8	3556	451.417782720776	16
8	3565	451.939065082571	17
8	3568	452.027642965082	16
8	3573	452.054862806539	15
8	3588	453.383639198175	14
8	3595	457.538348331827	15
8	3597	457.626644625197	16
8	3599	458.125918981114	17
8	3616	461.079544307647	18
8	3630	461.604686555298	17
8	3713	464.457456566145	18
8	3725	467.588803288399	19
8	3740	470.039743811139	18
8	3750	471.096331547841	17
8	3762	474.4843012557	18
8	3767	475.820739118317	17
8	3772	475.874907939935	16
8	3777	475.973593806963	15
8	3784	476.248150222871	16
8	3789	477.559119385015	15
8	3804	478.052846153573	14
8	3816	478.429496941218	15
8	3825	478.942148879661	14
8	3834	479.199316930423	15
8	3855	481.453119992415	16
8	3880	485.399479359062	15
8	3887	486.242847875669	16
8	3889	487.249297275666	17
8	3896	489.261620842506	18
8	3936	491.24804342834	17
8	3945	491.503580206966	18
8	3947	491.679603886936	19
8	3970	493.961458418414	18
8	3985	495.262652168664	17
8	4010	497.516352910426	16
8	4014	497.535095537062	17
8	4036	500.016888746811	18
8	4058	501.199291932606	19
8	4066	501.463194151015	18
8	4091	503.266097972206	17
8	4103	503.890290720636	18
8	4120	506.112391788077	19
8	4155	513.284381320672	18
8	4162	520.205516762144	19
8	4172	520.653085907534	18
8	4197	522.199887536773	17
8	4202	522.378120674856	16
8	4214	523.765489183937	17
8	4229	526.044300734296	16
8	4234	526.230697895285	15
8	4241	526.704869363124	16
8	4246	527.294294977228	15
8	4253	528.644752689549	16
8	4255	529.402142818003	17
8	4290	535.414197085771	16
8	4294	535.429278752892	17
8	4314	536.482141276915	18
8	4339	539.094641314825	17
8	4354	539.571745151303	16
8	4361	539.751424202452	17
8	4388	541.209558720861	16
8	4415	542.485935638182	17
8	4440	544.519605463238	18
8	4445	544.629045759643	17
8	4452	545.884666661563	18
8	4454	546.007103923977	19
8	4459	547.699053088581	18
8	4481	550.163619568508	19
8	4503	552.503444456265	18
8	4521	553.016922561667	17
8	4526	553.110617843586	16
8	4531	553.154694631101	15
8	4543	558.753908844897	16
8	4548	558.857614507426	15
8	4553	558.927789552917	14
8	4558	558.945289781449	13
8	4565	559.752178619864	14
8	4567	561.018070072131	15
8	4574	563.343777618748	16
8	4576	563.911139618025	17
8	4578	564.857204070723	18
8	4608	566.862447854894	17
8	4615	566.977220640802	16
8	4628	567.755011582993	15
8	4635	567.963783084468	16
8	4637	568.012552887972	17
8	4647	568.944149819767	16
8	4671	569.790203132707	17
8	4684	571.741099321709	16
8	4691	574.149180512215	17
8	4711	575.552250305964	16
8	4718	575.58199025728	15
8	4723	575.629102387109	14
8	4731	575.914943795222	13
8	4746	576.918035382227	12
8	4758	577.903620905071	13
8	4763	578.133215260164	12
8	4770	580.131738251637	13
8	4772	580.711817816871	14
8	4782	581.787377528561	13
8	4799	582.852732798466	14
8	4801	583.204286051303	15
8	4808	588.718147772494	16
8	4810	594.058866959746	17
8	4815	594.406690403963	16
8	4825	595.041808396305	15
8	4835	597.401092418962	14
8	4847	597.797817915698	15
8	4849	599.101763086786	16
8	4851	599.132482496148	17
8	4861	600.981315453263	16
8	4871	602.571248412912	15
8	4878	604.033545088019	16
8	4882	605.402621320655	17
8	4887	605.743554888427	18
8	4899	609.271151301388	19
8	4939	615.22737504397	18
8	4994	619.252343862356	17
8	5004	619.742634906113	16
8	5049	621.297313903521	15
8	5054	621.362735109133	14
8	5059	621.512722876038	13
8	5063	621.580512101945	14
8	5065	621.7265796637	15
8	5075	622.493574529542	16
8	5085	623.400215464984	15
8	5092	625.481091368924	16
8	5094	625.704051242075	17
8	5104	627.498316917906	16
8	5111	627.756336243135	17
8	5118	628.362199731102	18
8	5123	629.301773761351	17
8	5130	630.160672528611	18
8	5145	631.798641360399	17
8	5160	632.198838673499	16
8	5190	633.533678670504	15
8	5194	633.633975199749	16
8	5207	634.055412520952	15
8	5214	634.358745183912	16
8	5219	634.582566278807	15
8	5239	634.983158895408	14
8	5244	634.987406659401	13
8	5251	635.055688751939	12
8	5266	635.849985334745	13
8	5268	635.885748043471	14
8	5270	637.282266847763	15
8	5277	639.113877375336	16
8	5279	642.238443936141	17
8	5281	645.200432111669	18
8	5283	646.609191927792	19
8	5292	647.758997637542	20
8	5310	651.242955629507	19
8	5330	651.914535966616	18
8	5335	652.036420893594	17
8	5362	654.477118747021	18
8	5364	654.711670244253	19
8	5366	655.185896303719	20
8	5411	661.079987582202	19
8	5425	661.436863084281	18
8	5438	661.99156107497	17
8	5473	663.590851377904	16
8	5486	663.675782987403	15
8	5490	663.817557480891	16
8	5495	664.430436815364	17
8	5515	665.691826747284	16
8	5522	666.505237874259	17
8	5534	671.475033887264	18
8	5554	674.917954623061	17
8	5571	677.773451983627	16
8	5584	678.170177007664	15
8	5596	678.64992995714	16
8	5601	678.798582100369	15
8	5605	678.807428041638	16
8	5610	679.8040537847	17
8	5612	679.829535089858	18
8	5622	681.269185563448	17
8	5627	681.292599905128	16
8	5634	681.494736233681	17
8	5639	681.646487630601	16
8	5651	682.855229070378	17
8	5671	684.161976319346	16
8	5691	685.004811799628	15
8	5700	685.305829360204	16
8	5708	685.7973668985	15
8	5715	688.879814232437	16
8	5717	689.433035975885	17
8	5722	690.399213560681	16
8	5729	692.209629335589	17
8	5771	701.067236265527	18
8	5776	703.172454534093	17
8	5783	703.581161796618	18
8	5790	705.359840118277	19
8	5792	707.248985394213	20
8	5802	709.00309589778	19
8	5827	712.730651836351	18
8	5834	712.867716951608	19
8	5844	717.619016980704	18
8	5881	719.837724143268	19
8	5888	720.966199149053	20
8	5893	721.908840594255	19
8	5938	724.624092346353	18
8	5945	725.058186350841	19
8	5952	730.03696051458	20
8	5957	730.972480543072	19
8	5962	730.981088959004	18
8	5992	731.76862290458	17
8	5997	731.783373627404	16
8	6019	732.322344440134	15
8	6029	732.502066901658	16
8	6036	733.265330205189	17
8	6066	738.975198091317	16
8	6072	739.308421747617	17
8	6088	739.838880042775	16
8	6100	741.399199171886	17
8	6127	745.123482304987	18
8	6129	749.172019095952	19
8	6154	755.535105486153	18
8	6176	757.353100320695	19
8	6196	759.947929645302	18
8	6201	760.015565828359	17
8	6228	761.973202758007	18
8	6255	763.296990057645	17
8	6260	763.534740024299	16
8	6268	764.08525508104	15
8	6273	764.145103359626	14
8	6280	764.272396243323	15
8	6287	764.768029973704	16
8	6291	764.887798459326	17
8	6299	765.08173366061	16
8	6309	765.380071970519	15
8	6319	766.098036451529	14
8	6346	768.871972628838	15
8	6348	769.418941523473	16
8	6390	772.996720754057	17
8	6392	774.09931986959	18
8	6397	775.376621659435	17
8	6402	775.377552673739	16
8	6409	775.597035079743	15
8	6416	776.019286685591	16
8	6437	777.654399825666	17
8	6440	777.669147165053	16
8	6445	777.677109218658	15
8	6468	779.309788534043	16
8	6472	780.345171405959	17
8	6492	782.391527867186	18
8	6494	785.265008549435	19
8	6511	795.565665264523	20
8	6521	797.300619861059	19
8	6541	800.852937451096	18
8	6548	801.712330109556	19
8	6553	802.468985538402	18
8	6568	805.703753459447	17
8	6578	806.797593379262	16
8	6582	806.844815159564	17
8	6600	809.683069403102	16
8	6615	810.839395792096	15
8	6620	810.874948344951	14
8	6625	810.950075761222	13
8	6632	811.278565655938	14
8	6642	813.869640500814	13
8	6667	815.753678948257	12
8	6676	816.103072591703	13
8	6681	816.776605999883	14
8	6688	818.254378171996	15
8	6715	821.625766680226	14
8	6743	825.683141359303	13
8	6748	825.707035059714	12
8	6765	826.517225940284	13
8	6777	827.082622710634	14
8	6787	828.5060594484	13
8	6791	828.553919993833	14
8	6804	828.973860195902	13
8	6831	830.580076374456	14
8	6841	831.076770345234	13
8	6846	831.333714751745	12
8	6858	832.097623533916	13
8	6863	832.305292907934	12
8	6890	834.046302294488	13
8	6892	835.119558253253	14
8	6894	835.527259601316	15
8	6896	837.086557258134	16
8	6911	839.481104978504	15
8	6918	840.257747338457	16
8	6920	841.08584334246	17
8	6929	841.789675839512	18
8	6939	842.219570701582	19
8	6951	843.374601344177	18
8	6959	843.521353653459	17
8	6969	844.776775945599	16
8	6998	846.293495328031	17
8	7006	846.666856232028	16
8	7011	846.671404663925	15
8	7021	847.185980942098	14
8	7036	849.934140864981	13
8	7058	850.91949533615	14
8	7080	852.532388952023	15
8	7082	852.668737701523	16
8	7084	854.317219294764	17
8	7091	859.154299398091	18
8	7116	864.719932875362	17
8	7128	865.285100139031	18
8	7138	866.474467531122	17
8	7143	866.547602886121	16
8	7148	866.655987695914	15
8	7152	866.667390166849	16
8	7157	867.158153726712	17
8	7164	869.078333754682	18
8	7166	869.197082501846	19
8	7186	870.814905540904	18
8	7191	870.882485847784	17
8	7226	873.244946662883	16
8	7233	873.338447796326	17
8	7248	874.572662839332	16
8	7258	875.686925749851	15
8	7280	876.964315332624	16
8	7282	877.277488935433	17
8	7284	877.612190021788	18
8	7289	879.985482015533	17
8	7303	880.627549514733	18
8	7338	883.919213951889	19
8	7372	886.472103309238	18
8	7393	887.027407607964	17
8	7397	887.072963187161	18
8	7407	887.411897308847	17
8	7422	887.875029049142	16
8	7427	887.909304382672	15
8	7450	888.410807848965	14
8	7457	888.443258719641	15
8	7459	888.461462965234	16
8	7483	893.229915977634	17
8	7516	895.561576597545	16
8	7533	897.951765001624	17
8	7535	900.17653603661	18
8	7542	904.051201945025	19
8	7544	906.631670550173	20
8	7569	909.665591630926	19
8	7584	910.742323054488	18
8	7594	911.100343768583	17
8	7601	911.352685856188	18
8	7616	911.752409774687	17
8	7626	912.437348540803	16
8	7636	912.491177741012	15
8	7641	912.560519373581	14
8	7648	913.833475344333	15
8	7650	914.596195720485	16
8	7670	918.170967783199	15
8	7675	918.196301323934	14
8	7682	918.383207933375	15
8	7684	919.474808898256	16
8	7686	920.742590525756	17
8	7693	926.932314723758	18
8	7695	929.315615195448	19
8	7700	933.965527377778	18
8	7730	935.652387042604	17
8	7739	936.084143451303	18
8	7747	936.24888760972	17
8	7782	937.999928009231	16
8	7792	938.269409519746	15
8	7814	939.013922344227	14
8	7834	939.362108257965	13
8	7854	939.822694926914	12
8	7866	940.068065222267	11
8	7873	940.224739201202	12
8	7884	940.522566327724	11
8	7891	940.640416452952	12
8	7898	941.236088678834	13
8	7900	941.244207427761	14
8	7949	943.537060396937	13
8	7990	945.937717882137	12
8	8017	948.778162053196	13
8	8022	949.77816829034	12
8	8027	949.992603489683	11
8	8034	950.175814365497	12
8	8036	950.176673450561	13
8	8038	950.429823671758	14
8	8045	952.295946169327	15
8	8050	953.455720682328	14
8	8062	953.996781845038	15
8	8069	954.451182761598	16
8	8071	956.62881626531	17
8	8091	961.654134865289	16
8	8098	964.330994670516	17
8	8102	965.756482773059	18
8	8127	971.695842035854	19
8	8137	972.265824965258	18
8	8164	974.825009411432	19
8	8189	977.793416403854	18
8	8194	977.795731826833	17
8	8199	977.965553511221	16
8	8209	978.221642364996	15
8	8214	978.279109405908	14
8	8236	980.814558387825	15
8	8238	982.364282523136	16
8	8245	982.93188778728	17
8	8252	985.430080415154	18
8	8254	985.608277566062	19
8	8276	998.907320019014	18
8	8293	999.412581746792	19
8	8296	999.446866924083	18
8	8301	999.632729218688	17
8	8308	999.914140813325	18
8	8313	1000.746737081955	17
8	8338	1003.105238000494	16
8	8358	1003.368103539234	15
8	8370	1004.794922876449	16
8	8372	1006.634909823551	17
8	8374	1008.368284059625	18
8	8384	1010.96697922898	17
8	8396	1013.20159252946	18
8	8398	1013.323220172759	19
8	8403	1013.99987136226	18
8	8410	1014.295119010181	19
8	8435	1016.191646440957	18
8	8440	1016.255597420144	17
8	8452	1016.44184399632	18
8	8457	1017.225645853405	17
8	8472	1017.584857940813	16
8	8484	1018.79231083192	17
8	8489	1019.199512100346	16
8	8499	1019.598403021088	15
8	8506	1021.708309263014	16
8	8508	1022.097756633329	17
8	8510	1022.213780911281	18
8	8512	1022.537934703766	19
8	8552	1028.24492860632	18
8	8557	1028.361784897725	17
8	8562	1028.36671587494	16
8	8569	1029.124176692371	17
8	8576	1029.815122453736	18
8	8618	1035.166087695346	19
8	8625	1036.439705023144	20
8	8692	1042.899933055243	19
8	8705	1043.734436240203	18
8	8715	1044.139502984941	17
8	8722	1044.570471229734	18
8	8734	1046.308448563365	19
8	8754	1057.019839880525	18
8	8769	1057.184557016614	17
8	8781	1059.039741898217	18
8	8808	1066.205027675224	19
8	8810	1066.435501264333	20
8	8817	1069.861661860518	19
8	8860	1073.265338703779	18
8	8875	1074.659994479888	17
8	8880	1074.861171930471	16
8	8885	1074.935269166029	15
8	8889	1074.947101182127	16
8	8894	1076.323418648401	17
8	8906	1078.718095835528	18
8	8918	1079.794101864838	19
8	8940	1082.39555505456	20
8	8965	1094.60358668943	19
8	8972	1097.042383256496	20
8	8982	1099.245440937717	19
8	8999	1101.96027341497	20
8	9099	1122.717413312866	19
8	9119	1123.954205956745	18
8	9124	1123.983311121322	17
8	9134	1125.099051604775	16
8	9151	1129.035093362967	17
8	9178	1132.981583657524	18
8	9182	1136.551012611774	19
8	9270	1143.169269480093	18
8	9310	1148.791224048479	17
8	9320	1149.351581093756	16
8	9342	1150.688116398352	17
8	9344	1154.268774350593	18
8	9346	1156.309953968669	19
8	9348	1158.249992439607	20
8	9368	1162.220833217856	19
8	9373	1162.369519101373	18
8	9388	1164.343606806693	17
8	9420	1174.569109544113	18
8	9432	1174.763599006002	19
8	9457	1175.668951284589	18
8	9461	1175.944458523614	19
8	9484	1178.035280514637	18
8	9489	1178.077456968402	17
8	9501	1178.672100626406	18
8	9506	1180.562839048145	17
8	9513	1181.58418088395	18
8	9518	1182.979227901435	17
8	9525	1185.985267915175	18
8	9530	1186.491601653899	17
8	9545	1187.257258211978	16
8	9555	1187.750959068459	15
8	9575	1188.203436510493	14
8	9585	1188.350565119091	13
8	9599	1188.795447257486	14
8	9611	1189.347187140491	15
8	9629	1193.684554169692	14
8	9638	1193.894998890128	15
8	9648	1195.388630765453	16
8	9658	1196.74962225556	15
8	9675	1197.554664181453	16
8	9704	1199.486181631685	15
8	9713	1199.634751334225	16
8	9749	1200.577030024123	17
8	9754	1202.9008837045	16
8	9763	1203.259678369924	17
8	9781	1208.61242542701	16
8	9793	1210.265126923489	17
8	9820	1212.665879946396	18
8	9825	1214.277440444422	17
8	9845	1218.339490181172	16
8	9850	1218.510546013592	15
8	9865	1219.088091035948	14