version 2
run Multitask30-17-20150106-11:37:59-4972
attr configname Multitask30
attr datetime 20150106-11:37:59
attr experiment Multitask30
attr inifile omnetpp.ini
attr iterationvars ""
attr iterationvars2 $repetition=17
attr measurement ""
attr network Multitask
attr processid 4972
attr repetition 17
attr replication #17
attr resultdir results
attr runnumber 17
attr seedset 17

vector 8  Multitask.allocateQ2  queueLength:vector  ETV
attr interpolationmode  sample-hold
attr title  "queue length, vector"
vector 11  Multitask.queue3  queueLength:vector  ETV
attr interpolationmode  sample-hold
attr title  "queue length, vector"
vector 13  Multitask.queue3  busy:vector  ETV
attr interpolationmode  sample-hold
attr title  "server busy state, vector"
vector 15  Multitask.queue4  queueLength:vector  ETV
attr interpolationmode  sample-hold
attr title  "queue length, vector"
vector 17  Multitask.queue4  busy:vector  ETV
attr interpolationmode  sample-hold
attr title  "server busy state, vector"
vector 19  Multitask.queue5  queueLength:vector  ETV
attr interpolationmode  sample-hold
attr title  "queue length, vector"
vector 21  Multitask.queue5  busy:vector  ETV
attr interpolationmode  sample-hold
attr title  "server busy state, vector"
vector 23  Multitask.queue6  queueLength:vector  ETV
attr interpolationmode  sample-hold
attr title  "queue length, vector"
vector 25  Multitask.queue6  busy:vector  ETV
attr interpolationmode  sample-hold
attr title  "server busy state, vector"
vector 27  Multitask.queue7  queueLength:vector  ETV
attr interpolationmode  sample-hold
attr title  "queue length, vector"
vector 29  Multitask.queue7  busy:vector  ETV
attr interpolationmode  sample-hold
attr title  "server busy state, vector"
vector 30  Multitask.resourceCPU  amount:vector  ETV
attr interpolationmode  sample-hold
attr title  "available resource, vector"
vector 12  Multitask.queue3  queueingTime:vector  ETV
attr interpolationmode  none
attr title  "queueing time at dequeue, vector"
attr unit  s
vector 28  Multitask.queue7  queueingTime:vector  ETV
attr interpolationmode  none
attr title  "queueing time at dequeue, vector"
attr unit  s
vector 20  Multitask.queue5  queueingTime:vector  ETV
attr interpolationmode  none
attr title  "queueing time at dequeue, vector"
attr unit  s
vector 16  Multitask.queue4  queueingTime:vector  ETV
attr interpolationmode  none
attr title  "queueing time at dequeue, vector"
attr unit  s
vector 24  Multitask.queue6  queueingTime:vector  ETV
attr interpolationmode  none
attr title  "queueing time at dequeue, vector"
attr unit  s
vector 9  Multitask.allocateQ2  queueingTime:vector  ETV
attr interpolationmode  none
attr title  "queueing time at dequeue, vector"
attr unit  s
vector 0  Multitask.sink  lifeTime:vector  ETV
attr interpolationmode  none
attr title  "lifetime of arrived jobs, vector"
attr unit  s
vector 1  Multitask.sink  totalQueueingTime:vector  ETV
attr interpolationmode  none
attr title  "the total time spent in queues by arrived jobs, vector"
attr unit  s
vector 4  Multitask.sink  queuesVisited:vector  ETV
attr interpolationmode  none
attr title  "the total number of queues visited by arrived jobs, vector"
vector 3  Multitask.sink  totalServiceTime:vector  ETV
attr interpolationmode  none
attr title  "the total time spent  by arrived jobs, vector"
attr unit  s
vector 2  Multitask.sink  totalDelayTime:vector  ETV
attr interpolationmode  none
attr title  "the total time spent in delay nodes by arrived jobs, vector"
attr unit  s
vector 5  Multitask.sink  delaysVisited:vector  ETV
attr interpolationmode  none
attr title  "the total number of delays visited by arrived jobs, vector"
vector 6  Multitask.sink  generation:vector  ETV
attr interpolationmode  none
attr title  "the generation of the arrived jobs, vector"
0	13012	1405.446799504488	1405.4467995045
0	13030	1405.749262998398	1405.7492629984
0	13050	1406.144289261703	1406.1442892617
0	13068	1406.614479983291	1406.6144799833
0	13082	1407.077999432667	1407.0779994327
0	13122	1413.174817809364	1413.1748178094
0	13173	1422.345205963515	1422.3452059635
0	13196	1424.690729195758	1424.6907291958
0	13207	1424.744184309514	1424.7441843095
0	13218	1426.527151439889	1426.5271514399
0	13234	1429.368581275621	1429.3685812756
0	13240	1429.370104980035	1429.37010498
0	13246	1429.405872984001	1429.405872984
0	13307	1442.893180826591	1442.8931808266
0	13347	1449.106989166566	1449.1069891666
0	13369	1451.487499615872	1451.4874996159
0	13415	1454.618469370553	1454.6184693706
0	13421	1454.766501587371	1454.7665015874
0	13432	1455.325824796933	1455.3258247969
0	13443	1455.837595757148	1455.8375957571
0	13490	1461.324178636991	1461.324178637
0	13520	1464.028528785786	1464.0285287858
0	13532	1467.553514867965	1467.553514868
0	13549	1470.577067753575	1470.5770677536
0	13641	1492.752728755511	1492.7527287555
1	13012	1405.446799504488	1105.448320602
1	13030	1405.749262998398	1107.4300555693
1	13050	1406.144289261703	1079.8478517302
1	13068	1406.614479983291	1119.9489680168
1	13082	1407.077999432667	1095.0726508314
1	13122	1413.174817809364	958.99996575265
1	13173	1422.345205963515	1088.30751964
1	13196	1424.690729195758	1078.575975719
1	13207	1424.744184309514	1160.3172442745
1	13218	1426.527151439889	1061.6517311411
1	13234	1429.368581275621	1079.2815165276
1	13240	1429.370104980035	1029.9590733005
1	13246	1429.405872984001	1132.7107434151
1	13307	1442.893180826591	1052.4028685274
1	13347	1449.106989166566	1141.7516652494
1	13369	1451.487499615872	1184.997882689
1	13415	1454.618469370553	1104.7952266819
1	13421	1454.766501587371	1190.2539722486
1	13432	1455.325824796933	1145.4326704766
1	13443	1455.837595757148	1188.5577737351
1	13490	1461.324178636991	1185.1737979522
1	13520	1464.028528785786	1188.0332107211
1	13532	1467.553514867965	1167.2948880478
1	13549	1470.577067753575	1213.4131252519
1	13641	1492.752728755511	1157.0910265454
2	13012	1405.446799504488	0
2	13030	1405.749262998398	0
2	13050	1406.144289261703	0
2	13068	1406.614479983291	0
2	13082	1407.077999432667	0
2	13122	1413.174817809364	0
2	13173	1422.345205963515	0
2	13196	1424.690729195758	0
2	13207	1424.744184309514	0
2	13218	1426.527151439889	0
2	13234	1429.368581275621	0
2	13240	1429.370104980035	0
2	13246	1429.405872984001	0
2	13307	1442.893180826591	0
2	13347	1449.106989166566	0
2	13369	1451.487499615872	0
2	13415	1454.618469370553	0
2	13421	1454.766501587371	0
2	13432	1455.325824796933	0
2	13443	1455.837595757148	0
2	13490	1461.324178636991	0
2	13520	1464.028528785786	0
2	13532	1467.553514867965	0
2	13549	1470.577067753575	0
2	13641	1492.752728755511	0
3	13012	1405.446799504488	81.699112931769
3	13030	1405.749262998398	102.61536077837
3	13050	1406.144289261703	123.36067094417
3	13068	1406.614479983291	88.818591686171
3	13082	1407.077999432667	81.797864398466
3	13122	1413.174817809364	170.21466138018
3	13173	1422.345205963515	116.6692763193
3	13196	1424.690729195758	83.818414055615
3	13207	1424.744184309514	136.49062099162
3	13218	1426.527151439889	112.29285859476
3	13234	1429.368581275621	121.46718036768
3	13240	1429.370104980035	132.16834210944
3	13246	1429.405872984001	135.73536970212
3	13307	1442.893180826591	110.81761477819
3	13347	1449.106989166566	85.26269204345
3	13369	1451.487499615872	86.312503110949
3	13415	1454.618469370553	141.16971656671
3	13421	1454.766501587371	152.55070315823
3	13432	1455.325824796933	148.32857279777
3	13443	1455.837595757148	127.43336253776
3	13490	1461.324178636991	128.41807819143
3	13520	1464.028528785786	79.368978477051
3	13532	1467.553514867965	109.85142348935
3	13549	1470.577067753575	131.71321610657
3	13641	1492.752728755511	130.13135810139
4	13012	1405.446799504488	44
4	13030	1405.749262998398	40
4	13050	1406.144289261703	46
4	13068	1406.614479983291	69
4	13082	1407.077999432667	38
4	13122	1413.174817809364	67
4	13173	1422.345205963515	43
4	13196	1424.690729195758	36
4	13207	1424.744184309514	75
4	13218	1426.527151439889	47
4	13234	1429.368581275621	31
4	13240	1429.370104980035	58
4	13246	1429.405872984001	51
4	13307	1442.893180826591	47
4	13347	1449.106989166566	58
4	13369	1451.487499615872	46
4	13415	1454.618469370553	38
4	13421	1454.766501587371	59
4	13432	1455.325824796933	61
4	13443	1455.837595757148	60
4	13490	1461.324178636991	44
4	13520	1464.028528785786	47
4	13532	1467.553514867965	49
4	13549	1470.577067753575	78
4	13641	1492.752728755511	55
5	13012	1405.446799504488	0
5	13030	1405.749262998398	0
5	13050	1406.144289261703	0
5	13068	1406.614479983291	0
5	13082	1407.077999432667	0
5	13122	1413.174817809364	0
5	13173	1422.345205963515	0
5	13196	1424.690729195758	0
5	13207	1424.744184309514	0
5	13218	1426.527151439889	0
5	13234	1429.368581275621	0
5	13240	1429.370104980035	0
5	13246	1429.405872984001	0
5	13307	1442.893180826591	0
5	13347	1449.106989166566	0
5	13369	1451.487499615872	0
5	13415	1454.618469370553	0
5	13421	1454.766501587371	0
5	13432	1455.325824796933	0
5	13443	1455.837595757148	0
5	13490	1461.324178636991	0
5	13520	1464.028528785786	0
5	13532	1467.553514867965	0
5	13549	1470.577067753575	0
5	13641	1492.752728755511	0
6	13012	1405.446799504488	0
6	13030	1405.749262998398	0
6	13050	1406.144289261703	0
6	13068	1406.614479983291	0
6	13082	1407.077999432667	0
6	13122	1413.174817809364	0
6	13173	1422.345205963515	0
6	13196	1424.690729195758	0
6	13207	1424.744184309514	0
6	13218	1426.527151439889	0
6	13234	1429.368581275621	0
6	13240	1429.370104980035	0
6	13246	1429.405872984001	0
6	13307	1442.893180826591	0
6	13347	1449.106989166566	0
6	13369	1451.487499615872	0
6	13415	1454.618469370553	0
6	13421	1454.766501587371	0
6	13432	1455.325824796933	0
6	13443	1455.837595757148	0
6	13490	1461.324178636991	0
6	13520	1464.028528785786	0
6	13532	1467.553514867965	0
6	13549	1470.577067753575	0
6	13641	1492.752728755511	0
8	0	0	0
8	173	4.428766845202	1
8	175	4.581142045713	2
8	177	4.866201044608	3
8	181	5.280112083331	4
8	184	5.35939254429	3
8	196	6.568421297494	2
8	206	7.562717744204	3
8	208	8.449411445147	4
8	210	8.470920287141	5
8	212	8.522078369162	6
8	214	8.570856835067	7
8	231	9.935973883048	8
8	233	10.14788458942	9
8	235	10.680836324398	10
8	237	13.569927606042	11
8	252	15.437426053152	10
8	256	15.463948623895	11
8	261	16.441397512783	12
8	263	16.464324394934	13
8	265	18.593993841654	14
8	267	19.655707315332	15
8	269	19.954100344707	16
8	271	21.970080573367	17
8	273	23.145211809089	18
8	275	24.095400390586	19
8	292	28.369819349739	18
8	302	29.129214059574	19
8	304	32.772330543607	20
8	324	36.999043352978	19
8	354	40.665634451231	18
8	369	40.830062929072	17
8	384	41.642590778146	16
8	406	46.183606292005	17
8	411	46.829457759752	16
8	418	48.253322925825	17
8	430	49.354070014927	18
8	447	50.248787690031	17
8	469	51.825280976669	18
8	472	51.918708796856	17
8	487	52.887039240157	16
8	502	53.787273944379	15
8	517	54.682162058803	14
8	524	55.604413935594	15
8	526	57.79359934566	16
8	531	58.158325030991	15
8	553	62.739584563676	16
8	565	69.642422879977	17
8	587	71.031166693346	16
8	602	71.43261356921	15
8	627	73.006980200004	16
8	634	75.69507860655	17
8	669	77.615378200828	16
8	704	78.768739998764	15
8	710	78.906848628245	16
8	716	79.020129181474	15
8	738	79.908360796652	16
8	740	80.108231170192	17
8	745	80.827713719924	16
8	750	80.869039915699	15
8	767	84.034260300079	16
8	769	84.099672476893	17
8	776	87.83887062176	18
8	783	90.88360042552	19
8	797	92.551921674335	18
8	815	92.767076175355	17
8	820	92.823519598229	16
8	830	93.225182169791	15
8	837	93.361952490858	16
8	845	93.589664814323	15
8	850	93.708092940154	14
8	860	94.384805967572	13
8	867	95.426100143081	14
8	877	97.324474410935	13
8	884	100.081736797378	14
8	888	100.790155189576	15
8	933	103.032021684585	14
8	945	103.247059973282	15
8	950	103.868170957924	16
8	962	107.126929061274	17
8	967	107.63775597207	16
8	974	109.497884619017	17
8	976	111.623783401672	18
8	993	115.64727939928	19
8	1010	119.888170476422	20
8	1065	128.077811806784	19
8	1117	138.526438886582	20
8	1127	140.841891488061	19
8	1172	145.622055372228	18
8	1179	146.199584066152	19
8	1181	148.066335952364	20
8	1186	148.942937417064	19
8	1205	150.168934121851	20
8	1210	150.280655570918	19
8	1225	152.599596642716	20
8	1275	158.657584800371	19
8	1320	164.014450464639	18
8	1332	164.496470796969	19
8	1337	164.984768856706	18
8	1364	166.016559343462	19
8	1369	166.300545309708	18
8	1404	169.871286325592	17
8	1414	170.227492045119	16
8	1441	177.442098002068	17
8	1453	177.891729447946	18
8	1458	178.092881205639	17
8	1478	179.98347196889	16
8	1483	180.060895335523	15
8	1490	181.704947372797	16
8	1495	182.550019050465	15
8	1500	182.617923606669	14
8	1510	183.01829109095	13
8	1517	183.029885988861	14
8	1522	183.969266578782	13
8	1529	184.117348211136	12
8	1547	184.819653468019	11
8	1571	185.73210457317	12
8	1589	186.493548122766	11
8	1596	186.64483530978	10
8	1604	186.869568281114	9
8	1611	186.915688978515	8
8	1616	187.023574922054	7
8	1626	187.215039809173	8
8	1663	189.784733646158	9
8	1670	190.247026016926	10
8	1672	190.646858417958	11
8	1674	190.81166239283	12
8	1698	193.539597905376	13
8	1721	194.859978018945	12
8	1735	195.162307082371	13
8	1738	195.246454511556	12
8	1753	195.533473218231	11
8	1767	196.0056362237	12
8	1785	196.688214795907	11
8	1792	197.029672081126	12
8	1797	197.815693770285	11
8	1812	198.869497366918	10
8	1816	198.952775370704	11
8	1818	199.003516778933	12
8	1821	199.298728299106	11
8	1848	200.398429080981	12
8	1850	201.858089213358	13
8	1852	203.24158154862	14
8	1854	204.07035210625	15
8	1864	205.652497444944	14
8	1868	205.728097443427	15
8	1901	206.725300780849	14
8	1923	207.701322303868	15
8	1925	207.807796196538	16
8	1965	210.981948322245	15
8	1977	211.599192985353	16
8	1982	211.784927754429	15
8	1991	212.063547476551	16
8	1999	212.753858833147	15
8	2006	213.511751714861	16
8	2018	219.99274688458	17
8	2020	220.44918102145	18
8	2027	221.121940110703	19
8	2032	221.293072255889	18
8	2052	222.044027913418	17
8	2056	222.120663286702	18
8	2114	225.62669040698	17
8	2119	225.883879645911	16
8	2129	227.371545359469	15
8	2149	228.254753852501	14
8	2153	228.320024062428	15
8	2157	228.692185155742	16
8	2185	229.850239339292	15
8	2198	230.596488001952	14
8	2210	231.695964163786	15
8	2220	232.078652932333	14
8	2224	232.202280114167	15
8	2229	232.557509817688	16
8	2249	233.829334362028	15
8	2256	234.08534156288	16
8	2261	237.091239402095	15
8	2266	237.169137301071	14
8	2295	239.434095893409	15
8	2328	241.332922905626	14
8	2342	241.924935848964	15
8	2355	243.336665732039	14
8	2359	243.393640027639	15
8	2374	244.49550324	14
8	2422	248.251957177819	13
8	2426	248.329563411846	14
8	2436	249.222727672169	15
8	2441	251.557972995371	14
8	2455	252.403391842612	15
8	2458	252.505882446715	14
8	2462	252.533146573872	15
8	2470	252.765836814946	14
8	2482	254.36286952965	15
8	2484	256.197795495329	16
8	2494	257.363708491697	15
8	2501	257.399227157004	16
8	2506	257.624179752182	15
8	2538	260.218317500249	16
8	2550	261.07583729187	17
8	2572	262.740535137812	18
8	2591	265.097941380962	19
8	2609	266.036720077862	18
8	2614	266.198209119341	17
8	2641	268.836939916815	18
8	2648	272.224613269169	19
8	2678	280.218142192503	18
8	2698	283.81129603499	17
8	2703	283.95716245631	16
8	2707	283.997844182277	17
8	2720	285.191092163999	16
8	2737	285.927504960921	17
8	2739	286.037277143555	18
8	2741	287.177082675971	19
8	2743	287.492056811358	20
8	2803	305.36497849273	19
8	2813	305.922031854558	18
8	2828	309.826291088587	17
8	2837	311.025422167098	18
8	2847	311.243924567814	17
8	2865	311.747398546805	16
8	2890	312.311382381547	15
8	2927	313.088759489224	16
8	2934	314.431699023191	17
8	2941	318.259197349087	18
8	2958	320.114660900895	19
8	2960	320.387198365546	20
8	2980	321.769628083846	19
8	3020	325.207817679397	18
8	3054	326.665778191023	19
8	3062	327.074321138821	18
8	3099	330.07035517098	19
8	3104	330.64083662082	18
8	3109	330.784640453498	17
8	3149	333.148012195918	16
8	3169	333.839244737605	15
8	3199	334.824005158662	14
8	3206	337.124919441713	15
8	3240	339.288703966087	16
8	3260	341.512549119489	17
8	3290	346.542582305138	16
8	3300	347.145382614617	15
8	3342	350.178422865651	16
8	3379	352.303127535035	17
8	3411	353.625913658249	16
8	3416	353.648436293002	15
8	3436	355.242165074401	16
8	3441	356.262811750476	15
8	3486	358.169052141768	14
8	3491	358.343504491265	13
8	3498	358.436326867178	14
8	3500	358.644850527672	15
8	3507	359.003955906323	16
8	3514	359.397708978667	17
8	3519	359.751600680975	16
8	3551	361.214590543539	17
8	3561	362.070118423402	16
8	3568	362.511257581717	17
8	3588	365.857523228639	16
8	3613	367.942385497568	15
8	3623	368.181634957318	14
8	3628	368.205190179324	13
8	3645	370.330736248466	14
8	3655	372.131439893953	13
8	3662	372.609642060019	14
8	3664	372.973755600676	15
8	3666	375.16727608212	16
8	3676	377.585404444475	15
8	3688	379.711378381024	16
8	3690	380.865897869031	17
8	3692	381.851026902738	18
8	3696	383.275484748186	19
8	3701	384.058841473173	20
8	3731	388.645141610125	19
8	3738	388.794834487073	18
8	3751	389.308407986973	17
8	3763	390.778249742925	18
8	3793	395.977944870247	17
8	3803	396.078552022968	16
8	3815	397.457559435622	17
8	3817	397.969206397584	18
8	3824	398.866757528497	19
8	3844	399.836372629906	18
8	3854	400.6247522854	17
8	3861	401.349289644338	18
8	3878	401.99665926808	19
8	3890	405.111734888596	20
8	3905	407.686281181548	19
8	3922	408.255780979507	20
8	3927	409.057491009882	19
8	3992	419.553184341451	18
8	4012	422.031997831813	17
8	4019	422.156287493964	18
8	4034	422.871070468965	17
8	4061	424.219277031654	18
8	4066	424.254371574431	17
8	4073	424.409504695354	18
8	4088	428.264186236839	17
8	4108	429.60602259215	16
8	4138	430.704770835324	15
8	4145	431.243967239667	16
8	4187	442.040363576843	17
8	4197	443.653867649347	16
8	4209	446.668757578584	17
8	4211	448.529175304399	18
8	4213	449.02609259134	19
8	4263	454.448827575594	18
8	4278	455.480699762244	17
8	4283	455.540879644282	16
8	4290	455.701302083179	17
8	4315	456.464992445642	16
8	4337	457.292199002989	17
8	4362	461.103768039832	16
8	4382	462.741073440973	15
8	4411	465.560347389862	16
8	4428	466.470943189226	17
8	4436	467.244400866448	16
8	4440	467.274727148822	17
8	4453	468.22188178372	16
8	4458	468.306425770137	15
8	4470	468.697463520029	14
8	4480	469.18749147662	15
8	4537	472.178027510279	16
8	4542	473.314851757365	15
8	4549	473.9806280963	16
8	4556	475.74966703993	17
8	4561	476.431585372858	16
8	4566	476.4761365552	15
8	4585	477.774740329957	16
8	4608	479.646249302648	15
8	4620	481.806062290621	16
8	4622	483.281068571135	17
8	4644	485.736567189033	18
8	4648	487.338429450575	19
8	4666	488.303534172295	18
8	4673	488.5119988155	19
8	4680	489.441589874486	20
8	4690	491.24347772977	19
8	4712	493.212419119725	20
8	4739	497.870195403569	19
8	4744	498.192759636104	18
8	4767	498.563543905872	17
8	4779	500.532160248269	18
8	4818	513.784483661139	19
8	4826	514.013618395638	18
8	4836	514.964840307551	17
8	4853	515.917164204898	18
8	4855	516.12604234292	19
8	4870	518.230991966196	18
8	4874	518.244428505499	19
8	4879	518.642151830776	20
8	4924	528.309729839468	19
8	4939	528.707910421188	18
8	4949	528.928052162671	17
8	4954	528.952761783128	16
8	4969	529.58974237409	15
8	4976	530.439565537701	16
8	4986	531.346332039287	15
8	4991	531.360160824816	14
8	5008	533.400602976733	15
8	5015	534.137024336034	16
8	5017	535.574513728666	17
8	5023	539.212006486128	18
8	5046	539.898540641629	19
8	5056	540.273936896899	18
8	5073	541.52160017474	19
8	5130	546.704720476788	18
8	5138	546.773409442259	17
8	5159	547.402377504257	16
8	5200	549.376353924365	17
8	5212	549.626338601229	16
8	5227	551.089917750178	17
8	5229	551.960894859523	18
8	5234	553.066845748172	17
8	5241	553.634129959748	18
8	5251	554.472142231121	17
8	5258	554.590298301392	18
8	5260	556.512605452631	19
8	5280	558.025752259813	18
8	5325	560.386467476556	17
8	5342	561.967020218999	18
8	5372	562.80972393117	17
8	5439	565.480837257345	16
8	5444	565.5377800836	15
8	5449	565.628490229237	14
8	5459	566.936394098527	15
8	5466	567.871685348936	16
8	5468	568.392683399788	17
8	5475	570.049034667811	18
8	5477	571.437631617348	19
8	5487	572.906609690712	18
8	5542	578.133980695608	17
8	5562	579.330654445172	16
8	5566	579.365070549693	17
8	5581	580.538947076434	18
8	5601	584.130989295225	17
8	5618	584.678975614421	18
8	5625	585.561498841404	19
8	5630	586.932865074075	18
8	5657	587.586455222898	17
8	5670	588.109764827506	16
8	5697	591.925184460284	17
8	5709	594.721292074258	18
8	5736	596.485615108872	17
8	5754	596.835015758017	16
8	5766	597.608214651181	17
8	5771	597.837657912199	16
8	5786	598.019838305839	15
8	5791	598.026558610306	14
8	5818	601.620567214709	15
8	5820	601.769001750979	16
8	5845	604.686741371723	15
8	5855	604.897393940923	14
8	5860	604.917689293146	13
8	5867	607.388622844149	14
8	5869	607.616586121757	15
8	5879	608.897034207488	14
8	5883	608.960806006181	15
8	5888	612.01432603403	16
8	5890	612.545677444115	17
8	5900	617.035894589293	16
8	5907	617.669856407503	17
8	5912	617.948569088254	16
8	5919	617.96624493027	17
8	5921	618.022175197677	18
8	5935	619.090767749848	19
8	5938	619.135345324959	18
8	5945	619.189570093661	17
8	5960	620.176808172495	16
8	5970	620.549663856923	17
8	5990	625.752286848306	16
8	6000	626.342120099652	15
8	6012	626.75094746269	14
8	6017	626.87938587825	13
8	6037	627.500892333808	12
8	6047	627.912211182403	13
8	6054	628.92947446591	12
8	6067	629.015897741436	11
8	6078	629.675096308388	12
8	6084	630.383964942846	11
8	6106	630.964172380149	12
8	6111	631.48605539818	11
8	6116	631.547781224913	10
8	6126	631.847271722421	9
8	6133	633.182622394204	10
8	6135	634.878390063139	11
8	6137	635.573466812545	12
8	6139	635.60259632467	13
8	6141	636.068692861905	14
8	6143	636.107031386765	15
8	6150	637.104622562527	16
8	6162	637.515746899669	17
8	6191	638.426467834474	16
8	6206	639.309572859767	17
8	6244	641.92989504787	16
8	6264	642.579207376666	15
8	6276	643.170415666418	16
8	6281	645.301790965424	15
8	6286	645.329106133016	14
8	6293	645.423109183039	15
8	6308	645.832269589256	14
8	6318	646.376662000423	13
8	6340	650.634511039275	14
8	6350	651.137062446451	13
8	6369	652.323205347837	14
8	6372	652.448303056507	13
8	6379	652.709215614311	14
8	6391	653.986221621835	15
8	6396	654.308034917054	14
8	6401	654.334221051666	13
8	6423	654.98356230602	12
8	6435	655.35596233946	13
8	6448	657.14613623478	12
8	6460	657.601855522151	13
8	6467	657.800227898255	14
8	6481	660.523819695524	15
8	6489	660.833267594502	14
8	6496	663.986208852304	15
8	6505	665.394350996498	16
8	6510	665.94982321624	17
8	6578	676.674718138345	18
8	6637	680.399297332946	17
8	6642	680.462542004942	16
8	6647	680.475026981526	15
8	6659	680.967144324776	16
8	6684	683.725297913945	15
8	6719	685.038986191607	14
8	6746	686.328849969614	13
8	6768	687.754214366086	14
8	6776	687.837879622504	13
8	6786	688.14611604607	12
8	6793	688.276712216164	13
8	6805	690.272299795031	14
8	6807	690.364955206501	15
8	6826	691.133175918662	16
8	6830	691.298196685903	17
8	6843	692.334799045137	18
8	6845	692.419137076353	19
8	6850	692.675977245284	18
8	6860	693.908500584503	17
8	6875	695.247225444919	16
8	6894	696.456665514468	17
8	6927	699.647422938387	16
8	6942	701.340831936843	15
8	6952	701.477998288848	14
8	6967	702.013524343565	13
8	6972	702.060293644552	12
8	6982	702.439157106505	11
8	6987	702.487838800835	10
8	6992	702.518451835972	9
8	7002	702.764712026	8
8	7014	703.608726632755	7
8	7029	706.231549092038	8
8	7038	707.066835470211	9
8	7043	707.335611236664	10
8	7055	708.053838581943	11
8	7077	709.687786646429	10
8	7082	709.692985936611	9
8	7127	711.145741167176	10
8	7132	711.463818146078	9
8	7147	712.562774718348	8
8	7154	715.293536635426	9
8	7158	716.059086730037	10
8	7168	716.894373452529	11
8	7170	717.060908587589	12
8	7179	717.779026030101	13
8	7194	722.565563922808	14
8	7199	724.841021749662	13
8	7206	725.297451168715	14
8	7211	725.668262216162	13
8	7216	725.932422336794	12
8	7226	726.463916320585	11
8	7233	727.344639135152	12
8	7238	727.69514503615	11
8	7248	728.173811812563	10
8	7255	729.645805952716	11
8	7262	731.269611197305	12
8	7267	731.474267838603	11
8	7279	733.570373423608	12
8	7281	733.698173052928	13
8	7283	734.036277304338	14
8	7292	734.210473476524	15
8	7299	734.67996048404	16
8	7304	735.252380246842	17
8	7306	737.335129287532	18
8	7311	737.686357880208	17
8	7316	737.856325150514	16
8	7320	737.858804932433	17
8	7325	738.442497846356	18
8	7337	739.200306519653	19
8	7342	740.039290838163	18
8	7352	740.158580824845	17
8	7387	742.782825179218	16
8	7399	743.995857628496	17
8	7401	744.081937746533	18
8	7426	745.328298742593	17
8	7436	748.360582645183	16
8	7441	748.394389309791	15
8	7448	748.456137500154	14
8	7452	748.658489985772	15
8	7462	749.137970266796	16
8	7475	749.534998813776	15
8	7482	749.608445468228	14
8	7500	750.336916919203	13
8	7505	750.358283104847	12
8	7512	750.538776540434	13
8	7514	750.812077563939	14
8	7516	751.514811249054	15
8	7518	754.41090777735	16
8	7520	754.73187996937	17
8	7530	759.978328427229	16
8	7557	760.79800197296	15
8	7562	760.919756527369	14
8	7612	762.596005742944	15
8	7614	762.608833850951	16
8	7626	765.006301596278	17
8	7628	765.356313258571	18
8	7630	766.941825486642	19
8	7665	771.901797357983	18
8	7672	771.931482954818	19
8	7682	773.518677989479	18
8	7691	775.998421564887	19
8	7704	777.249146131084	18
8	7718	777.486736380252	19
8	7736	778.630280345578	18
8	7743	779.510984472129	19
8	7755	780.771220066357	20
8	7770	789.615754855545	19
8	7775	789.626521873239	18
8	7790	794.023347441596	17
8	7795	794.171834531684	16
8	7820	795.403701037247	15
8	7824	795.506318417533	16
8	7837	796.056457192529	15
8	7852	797.354744731392	14
8	7859	798.086879702238	15
8	7864	800.262517680335	14
8	7869	800.302972879486	13
8	7879	801.734767088614	12
8	7896	803.647086645015	13
8	7911	804.166230644569	12
8	7918	805.186843609039	13
8	7925	808.455663418173	14
8	7927	809.823705184625	15
8	7929	810.303200282576	16
8	7936	810.42230583524	17
8	7973	812.327769717092	18
8	7978	812.458368753532	17
8	7985	813.48476005424	18
8	8000	817.6618784171	17
8	8020	818.496185038036	16
8	8027	819.639052757109	17
8	8029	820.307722873404	18
8	8039	823.590731572819	17
8	8043	823.694922689193	18
8	8051	824.730436973396	17
8	8056	824.803163872338	16
8	8071	827.108519979773	15
8	8125	830.688310186157	14
8	8132	831.014622515132	13
8	8143	831.252411609139	12
8	8193	832.54539994678	11
8	8203	832.737144711283	12
8	8210	833.10774451056	13
8	8222	834.26487611905	14
8	8224	834.665254143641	15
8	8231	835.563279703974	16
8	8238	836.730691024445	17
8	8248	837.599879015602	16
8	8257	838.710175186522	17
8	8282	840.249170502722	16
8	8297	840.459914615145	15
8	8310	840.628594157527	14
8	8315	840.646348122725	13
8	8327	841.034493337106	14
8	8329	841.36910040453	15
8	8331	841.425470612568	16
8	8333	841.523568448973	17
8	8335	843.244283780985	18
8	8357	846.436133674131	19
8	8384	854.942238414228	20
8	8399	857.272801062861	19
8	8406	859.42595726996	20
8	8413	860.693833132225	19
8	8418	860.71059776137	18
8	8433	860.984199390194	17
8	8453	865.834688226831	18
8	8455	866.47071825345	19
8	8457	867.534864458766	20
8	8462	868.133760970417	19
8	8472	871.970264462535	18
8	8494	873.984007065302	17
8	8522	876.165114785632	16
8	8539	878.102804249156	17
8	8541	878.466886831457	18
8	8563	882.029109850521	17
8	8608	884.815573441557	18
8	8615	886.105665790149	19
8	8635	886.779155771664	18
8	8645	887.478745884823	17
8	8657	889.266762930012	18
8	8684	899.687650964512	19
8	8689	900.440725611319	18
8	8709	901.762254319675	17
8	8746	907.250730806874	18
8	8751	911.532576912704	17
8	8756	911.751368984653	16
8	8763	912.232334742373	15
8	8845	921.010907044991	16
8	8850	921.20309309764	17
8	8860	925.070893395239	16
8	8880	927.092437241631	15
8	8897	927.638502977535	16
8	8912	928.061583079881	15
8	8924	929.799229425536	16
8	8934	931.18790775571	15
8	8943	931.359944310722	14
8	8957	932.060120992389	13
8	8967	932.289882494254	14
8	8993	933.063433368901	15
8	9025	934.731189892605	16
8	9027	935.299427150313	17
8	9037	936.493888891	16
8	9057	937.616306878946	15
8	9077	937.733255227549	14
8	9117	939.585980458601	13
8	9127	941.656776859159	12
8	9157	944.063750301987	11
8	9174	944.467819233057	12
8	9181	946.571931239771	13
8	9183	948.135124001413	14
8	9190	948.698347165471	15
8	9195	949.071347848549	14
8	9200	949.118286599962	13
8	9210	949.238360070356	12
8	9215	949.293626838286	11
8	9222	949.598407792525	12
8	9227	950.546926980574	11
8	9239	951.121155203976	10
8	9247	951.190412901645	9
8	9252	951.220536618013	8
8	9261	951.358272664658	9
8	9274	951.749177121373	8
8	9278	951.759778304983	9
8	9296	952.219402656028	8
8	9303	952.329009039364	9
8	9323	954.130026133162	8
8	9327	954.243225717498	9
8	9332	955.652981981723	10
8	9334	956.494050943187	11
8	9341	957.924040845323	12
8	9348	958.64576574228	13
8	9358	959.54820740891	12
8	9365	959.593178536772	13
8	9377	960.823046452538	14
8	9384	962.524659547135	15
8	9389	962.842751378559	14
8	9396	963.368155921326	15
8	9398	963.416613871211	16
8	9400	966.528721885007	17
8	9419	968.881131147683	18
8	9422	968.95325429114	17
8	9437	969.552950604569	16
8	9472	972.610933880814	15
8	9489	976.498326132923	16
8	9496	977.023047539595	17
8	9563	987.735667213394	18
8	9573	989.247750605447	17
8	9580	991.3677809314	18
8	9590	993.880283093048	17
8	9615	994.976848341192	16
8	9620	994.985951548964	15
8	9670	1001.019158791597	14
8	9687	1007.341921071343	15
8	9689	1009.943107847675	16
8	9691	1014.097504203976	17
8	9706	1015.338897661333	16
8	9713	1015.851105750787	17
8	9768	1022.416027752506	16
8	9773	1022.421992583901	15
8	9780	1023.034583874161	16
8	9787	1026.459598182762	17
8	9827	1030.425337000335	16
8	9839	1032.264210812624	17
8	9841	1032.495065802091	18
8	9843	1035.805883270986	19
8	9855	1041.620090343948	20
8	9870	1048.220616408051	19
8	9882	1049.14395725171	18
8	9890	1049.33597440203	17
8	9902	1056.417003878777	18
8	9917	1061.909335599662	17
8	9924	1062.132936469173	16
8	9957	1064.510764849914	15
8	9977	1065.625261620893	14
8	9984	1065.897937018956	15
8	9991	1067.668415402609	16
8	9996	1067.702449377999	15
8	10008	1068.112947311011	16
8	10015	1069.459057124181	17
8	10022	1072.684039018048	18
8	10027	1073.618483960507	17