version 2
run Multitask30-28-20150106-11:38:00-1216
attr configname Multitask30
attr datetime 20150106-11:38:00
attr experiment Multitask30
attr inifile omnetpp.ini
attr iterationvars ""
attr iterationvars2 $repetition=28
attr measurement ""
attr network Multitask
attr processid 1216
attr repetition 28
attr replication #28
attr resultdir results
attr runnumber 28
attr seedset 28

vector 8  Multitask.allocateQ2  queueLength:vector  ETV
attr interpolationmode  sample-hold
attr title  "queue length, vector"
vector 11  Multitask.queue3  queueLength:vector  ETV
attr interpolationmode  sample-hold
attr title  "queue length, vector"
vector 13  Multitask.queue3  busy:vector  ETV
attr interpolationmode  sample-hold
attr title  "server busy state, vector"
vector 15  Multitask.queue4  queueLength:vector  ETV
attr interpolationmode  sample-hold
attr title  "queue length, vector"
vector 17  Multitask.queue4  busy:vector  ETV
attr interpolationmode  sample-hold
attr title  "server busy state, vector"
vector 19  Multitask.queue5  queueLength:vector  ETV
attr interpolationmode  sample-hold
attr title  "queue length, vector"
vector 21  Multitask.queue5  busy:vector  ETV
attr interpolationmode  sample-hold
attr title  "server busy state, vector"
vector 23  Multitask.queue6  queueLength:vector  ETV
attr interpolationmode  sample-hold
attr title  "queue length, vector"
vector 25  Multitask.queue6  busy:vector  ETV
attr interpolationmode  sample-hold
attr title  "server busy state, vector"
vector 27  Multitask.queue7  queueLength:vector  ETV
attr interpolationmode  sample-hold
attr title  "queue length, vector"
vector 29  Multitask.queue7  busy:vector  ETV
attr interpolationmode  sample-hold
attr title  "server busy state, vector"
vector 30  Multitask.resourceCPU  amount:vector  ETV
attr interpolationmode  sample-hold
attr title  "available resource, vector"
vector 12  Multitask.queue3  queueingTime:vector  ETV
attr interpolationmode  none
attr title  "queueing time at dequeue, vector"
attr unit  s
vector 28  Multitask.queue7  queueingTime:vector  ETV
attr interpolationmode  none
attr title  "queueing time at dequeue, vector"
attr unit  s
vector 16  Multitask.queue4  queueingTime:vector  ETV
attr interpolationmode  none
attr title  "queueing time at dequeue, vector"
attr unit  s
vector 20  Multitask.queue5  queueingTime:vector  ETV
attr interpolationmode  none
attr title  "queueing time at dequeue, vector"
attr unit  s
vector 24  Multitask.queue6  queueingTime:vector  ETV
attr interpolationmode  none
attr title  "queueing time at dequeue, vector"
attr unit  s
vector 9  Multitask.allocateQ2  queueingTime:vector  ETV
attr interpolationmode  none
attr title  "queueing time at dequeue, vector"
attr unit  s
vector 0  Multitask.sink  lifeTime:vector  ETV
attr interpolationmode  none
attr title  "lifetime of arrived jobs, vector"
attr unit  s
vector 1  Multitask.sink  totalQueueingTime:vector  ETV
attr interpolationmode  none
attr title  "the total time spent in queues by arrived jobs, vector"
attr unit  s
vector 4  Multitask.sink  queuesVisited:vector  ETV
attr interpolationmode  none
attr title  "the total number of queues visited by arrived jobs, vector"
vector 3  Multitask.sink  totalServiceTime:vector  ETV
attr interpolationmode  none
attr title  "the total time spent  by arrived jobs, vector"
attr unit  s
vector 2  Multitask.sink  totalDelayTime:vector  ETV
attr interpolationmode  none
attr title  "the total time spent in delay nodes by arrived jobs, vector"
attr unit  s
vector 5  Multitask.sink  delaysVisited:vector  ETV
attr interpolationmode  none
attr title  "the total number of delays visited by arrived jobs, vector"
vector 6  Multitask.sink  generation:vector  ETV
attr interpolationmode  none
attr title  "the generation of the arrived jobs, vector"
0	12372	1357.607680621617	1357.6076806216
0	12393	1358.715152345789	1358.7151523458
0	12423	1365.704250828059	1365.7042508281
0	12447	1367.219952757938	1367.2199527579
0	12453	1367.375262497126	1367.3752624971
0	12504	1377.690112959166	1377.6901129592
0	12565	1385.922483944297	1385.9224839443
0	12606	1390.401402843375	1390.4014028434
0	12639	1391.976920977146	1391.9769209771
0	12670	1392.838876509451	1392.8388765095
0	12676	1392.85924443443	1392.8592444344
0	12684	1392.883888318629	1392.8838883186
0	12721	1394.01668134503	1394.016681345
0	12747	1398.734723290366	1398.7347232904
0	12753	1398.745884204528	1398.7458842045
0	12764	1399.057163988092	1399.0571639881
0	12790	1404.441320271747	1404.4413202717
0	12796	1404.555722194657	1404.5557221947
0	12809	1405.395516060467	1405.3955160605
0	12815	1405.406878377811	1405.4068783778
0	12828	1405.563081541653	1405.5630815417
0	12845	1406.620035997246	1406.6200359972
0	12859	1410.442471092219	1410.4424710922
0	12879	1410.973611220913	1410.9736112209
0	12896	1414.624979564315	1414.6249795643
1	12372	1357.607680621617	1023.8839257434
1	12393	1358.715152345789	1002.9832055457
1	12423	1365.704250828059	1120.1995281677
1	12447	1367.219952757938	1021.0427236026
1	12453	1367.375262497126	1067.4347593278
1	12504	1377.690112959166	1065.7823551384
1	12565	1385.922483944297	1082.9876510285
1	12606	1390.401402843375	1095.6758529953
1	12639	1391.976920977146	1077.1225931327
1	12670	1392.838876509451	1151.9828814423
1	12676	1392.85924443443	1126.5417232646
1	12684	1392.883888318629	1047.4007787719
1	12721	1394.01668134503	1148.9629155602
1	12747	1398.734723290366	1109.9690880197
1	12753	1398.745884204528	1135.7636508386
1	12764	1399.057163988092	1080.5799962405
1	12790	1404.441320271747	1131.3634896228
1	12796	1404.555722194657	977.17480186546
1	12809	1405.395516060467	1038.9998012608
1	12815	1405.406878377811	1099.0723555607
1	12828	1405.563081541653	1105.6277290713
1	12845	1406.620035997246	1106.0228345766
1	12859	1410.442471092219	1109.2320926363
1	12879	1410.973611220913	1112.3020982424
1	12896	1414.624979564315	1062.8384469159
2	12372	1357.607680621617	0
2	12393	1358.715152345789	0
2	12423	1365.704250828059	0
2	12447	1367.219952757938	0
2	12453	1367.375262497126	0
2	12504	1377.690112959166	0
2	12565	1385.922483944297	0
2	12606	1390.401402843375	0
2	12639	1391.976920977146	0
2	12670	1392.838876509451	0
2	12676	1392.85924443443	0
2	12684	1392.883888318629	0
2	12721	1394.01668134503	0
2	12747	1398.734723290366	0
2	12753	1398.745884204528	0
2	12764	1399.057163988092	0
2	12790	1404.441320271747	0
2	12796	1404.555722194657	0
2	12809	1405.395516060467	0
2	12815	1405.406878377811	0
2	12828	1405.563081541653	0
2	12845	1406.620035997246	0
2	12859	1410.442471092219	0
2	12879	1410.973611220913	0
2	12896	1414.624979564315	0
3	12372	1357.607680621617	75.673390954401
3	12393	1358.715152345789	116.58319687086
3	12423	1365.704250828059	66.043926430138
3	12447	1367.219952757938	123.92700330806
3	12453	1367.375262497126	70.325203209861
3	12504	1377.690112959166	159.42842676827
3	12565	1385.922483944297	126.36619440145
3	12606	1390.401402843375	95.287931885138
3	12639	1391.976920977146	90.814789181352
3	12670	1392.838876509451	107.59452168177
3	12676	1392.85924443443	129.02297355351
3	12684	1392.883888318629	158.39078422375
3	12721	1394.01668134503	66.284306973737
3	12747	1398.734723290366	126.18130414344
3	12753	1398.745884204528	87.604672242378
3	12764	1399.057163988092	104.49014722158
3	12790	1404.441320271747	95.044643556115
3	12796	1404.555722194657	139.68751567661
3	12809	1405.395516060467	118.82943484617
3	12815	1405.406878377811	96.594228609433
3	12828	1405.563081541653	77.623477075232
3	12845	1406.620035997246	99.902074627791
3	12859	1410.442471092219	131.38278510526
3	12879	1410.973611220913	161.27053378438
3	12896	1414.624979564315	108.737267423
4	12372	1357.607680621617	36
4	12393	1358.715152345789	56
4	12423	1365.704250828059	35
4	12447	1367.219952757938	64
4	12453	1367.375262497126	31
4	12504	1377.690112959166	84
4	12565	1385.922483944297	58
4	12606	1390.401402843375	41
4	12639	1391.976920977146	46
4	12670	1392.838876509451	46
4	12676	1392.85924443443	59
4	12684	1392.883888318629	49
4	12721	1394.01668134503	43
4	12747	1398.734723290366	64
4	12753	1398.745884204528	42
4	12764	1399.057163988092	44
4	12790	1404.441320271747	63
4	12796	1404.555722194657	51
4	12809	1405.395516060467	51
4	12815	1405.406878377811	33
4	12828	1405.563081541653	30
4	12845	1406.620035997246	50
4	12859	1410.442471092219	57
4	12879	1410.973611220913	61
4	12896	1414.624979564315	47
5	12372	1357.607680621617	0
5	12393	1358.715152345789	0
5	12423	1365.704250828059	0
5	12447	1367.219952757938	0
5	12453	1367.375262497126	0
5	12504	1377.690112959166	0
5	12565	1385.922483944297	0
5	12606	1390.401402843375	0
5	12639	1391.976920977146	0
5	12670	1392.838876509451	0
5	12676	1392.85924443443	0
5	12684	1392.883888318629	0
5	12721	1394.01668134503	0
5	12747	1398.734723290366	0
5	12753	1398.745884204528	0
5	12764	1399.057163988092	0
5	12790	1404.441320271747	0
5	12796	1404.555722194657	0
5	12809	1405.395516060467	0
5	12815	1405.406878377811	0
5	12828	1405.563081541653	0
5	12845	1406.620035997246	0
5	12859	1410.442471092219	0
5	12879	1410.973611220913	0
5	12896	1414.624979564315	0
6	12372	1357.607680621617	0
6	12393	1358.715152345789	0
6	12423	1365.704250828059	0
6	12447	1367.219952757938	0
6	12453	1367.375262497126	0
6	12504	1377.690112959166	0
6	12565	1385.922483944297	0
6	12606	1390.401402843375	0
6	12639	1391.976920977146	0
6	12670	1392.838876509451	0
6	12676	1392.85924443443	0
6	12684	1392.883888318629	0
6	12721	1394.01668134503	0
6	12747	1398.734723290366	0
6	12753	1398.745884204528	0
6	12764	1399.057163988092	0
6	12790	1404.441320271747	0
6	12796	1404.555722194657	0
6	12809	1405.395516060467	0
6	12815	1405.406878377811	0
6	12828	1405.563081541653	0
6	12845	1406.620035997246	0
6	12859	1410.442471092219	0
6	12879	1410.973611220913	0
6	12896	1414.624979564315	0
8	0	0	0
8	110	2.676289578916	1
8	112	3.397328615312	2
8	114	3.765589063575	3
8	116	5.059509309735	4
8	118	5.068209306647	5
8	120	6.679897303551	6
8	122	7.153784458826	7
8	129	8.238018038464	8
8	133	8.574415851405	9
8	143	11.539161455446	10
8	150	13.056871651046	11
8	152	15.200918770587	12
8	164	17.401392546657	13
8	179	18.181741161944	12
8	191	18.582705179795	13
8	193	19.208177004542	14
8	195	19.621225248922	15
8	197	22.118018780916	16
8	219	27.2797421336	17
8	224	27.405730732997	16
8	234	27.945075193826	15
8	254	29.647863744247	14
8	276	31.093913960348	15
8	291	34.435980365478	14
8	296	34.453929772848	13
8	311	34.900442526868	12
8	316	34.944304917574	11
8	323	35.334186590352	12
8	343	36.223449683958	11
8	360	36.831604921032	12
8	367	37.793788144835	13
8	379	38.914282116099	14
8	388	40.847256276507	15
8	391	41.045904969714	14
8	405	41.485981172099	15
8	418	45.643706985206	14
8	428	46.137633383527	13
8	445	47.542058742017	14
8	449	48.299198490066	15
8	452	48.329663008027	14
8	459	48.859562596866	15
8	479	49.774570069624	14
8	491	50.922672462091	15
8	497	51.491738925023	16
8	518	52.213550074464	15
8	523	52.225623215847	14
8	530	52.867027623596	15
8	532	55.461390980525	16
8	534	58.056838636989	17
8	539	60.774539031993	16
8	549	61.129148506279	15
8	553	61.162070033033	16
8	571	62.383404783254	15
8	576	62.436145799973	14
8	608	64.257839082836	15
8	610	66.660771458017	16
8	627	67.121609777774	15
8	632	67.338416060244	14
8	637	67.444980962536	13
8	647	68.172756227607	12
8	652	68.199750489766	11
8	672	68.457583770077	12
8	684	69.108673286764	13
8	686	69.126311091582	14
8	688	69.953312593685	15
8	693	70.608625455655	14
8	700	72.038889512379	15
8	702	74.749089768292	16
8	704	75.392650398408	17
8	743	79.386355467868	18
8	768	83.587250866705	17
8	793	85.954891960785	18
8	800	86.734834031571	19
8	815	89.872144761691	18
8	827	93.464486428719	19
8	884	102.663126962915	18
8	907	104.339870520863	17
8	912	104.406654171037	16
8	937	106.726964179673	15
8	949	107.693691004376	16
8	951	110.706127380122	17
8	958	111.857944242583	18
8	970	112.469131536429	19
8	985	115.604380509806	18
8	997	118.507673970826	19
8	1007	119.202091831249	18
8	1012	119.238985854005	17
8	1017	119.278291134268	16
8	1024	119.889986813342	17
8	1029	120.264687645506	16
8	1034	120.353302610124	15
8	1049	121.32555212221	14
8	1061	124.023781965815	15
8	1086	127.473725626199	14
8	1095	127.573515948975	15
8	1122	128.758595604187	16
8	1157	130.235551802712	17
8	1161	131.404589794348	18
8	1169	131.587020837241	17
8	1181	133.543824472123	18
8	1191	134.010346317233	17
8	1221	137.794961731673	16
8	1226	137.823748121384	15
8	1233	138.863316663251	16
8	1245	143.43536821806	15
8	1255	144.174237348711	16
8	1275	145.961914371184	15
8	1289	147.007859570362	16
8	1292	147.117381220874	15
8	1307	149.532862175742	14
8	1314	149.684298689006	15
8	1343	151.577298441484	14
8	1356	153.281303669972	15
8	1358	153.665237845967	16
8	1360	154.189336197099	17
8	1365	154.65388093428	16
8	1400	156.881168543078	15
8	1415	157.16414455218	14
8	1419	157.167253726422	15
8	1427	157.714097343156	14
8	1434	158.752510956459	15
8	1436	159.299325173995	16
8	1461	162.829367535728	15
8	1481	163.405133968796	14
8	1488	164.768987543254	15
8	1490	166.86507413711	16
8	1492	168.435249023681	17
8	1502	170.624781134615	16
8	1512	171.327813854826	15
8	1534	174.397991097761	16
8	1536	175.398858454577	17
8	1538	176.621302826604	18
8	1540	177.204175985455	19
8	1560	183.397181872446	18
8	1565	183.464941598763	17
8	1575	183.729407714529	16
8	1593	184.715697849226	17
8	1602	185.024140824089	16
8	1632	186.504987171057	15
8	1639	187.665240942872	16
8	1661	191.119336812404	17
8	1685	192.026869484575	16
8	1701	192.490039728771	15
8	1713	193.77794062686	16
8	1715	193.979519429523	17
8	1737	196.161843120174	18
8	1749	198.691404010537	19
8	1771	200.118652715199	20
8	1801	205.511706614488	19
8	1808	205.857901679332	18
8	1826	206.888782559332	17
8	1846	208.221079697083	16
8	1856	209.221586145799	15
8	1868	210.545656674937	16
8	1873	211.542444632194	15
8	1878	211.576830325544	14
8	1903	212.642187374807	13
8	1913	212.940588301322	12
8	1930	213.340882420635	13
8	1939	213.90747855373	14
8	1942	213.95043774119	13
8	1974	215.111049437688	14
8	1993	222.20215969327	15
8	2028	223.85459266872	16
8	2043	224.389699270822	15
8	2075	226.614622454867	16
8	2105	229.190400779551	15
8	2117	230.817827610346	16
8	2127	232.514369861517	15
8	2133	232.604181474898	16
8	2141	232.804736351459	15
8	2156	234.913078189006	16
8	2168	236.147501150803	17
8	2170	236.812998531906	18
8	2200	238.396005673233	17
8	2205	238.411711846481	16
8	2215	238.8827753986	15
8	2222	238.953099464216	14
8	2239	240.00132665023	15
8	2244	240.042968649066	14
8	2266	241.245057823393	15
8	2274	241.958411853777	14
8	2284	242.220676528638	13
8	2296	244.672116003109	14
8	2298	244.97769019989	15
8	2300	246.046792512558	16
8	2302	246.545184425344	17
8	2349	251.334151439981	18
8	2359	255.002650891775	17
8	2364	255.094430462557	16
8	2396	256.554857919546	17
8	2405	257.048643080149	18
8	2420	257.430466356539	19
8	2429	258.625180006531	20
8	2479	268.05509603723	19
8	2487	268.225012495124	18
8	2504	269.862585657106	19
8	2514	276.3428679374	18
8	2526	277.490073827763	19
8	2540	282.540565614868	20
8	2603	289.530381444318	19
8	2630	297.399652043393	20
8	2660	299.926386820297	19
8	2680	300.393704383978	18
8	2695	300.91790462254	17
8	2722	304.741582396309	18
8	2749	306.22294234435	19
8	2766	307.455891569827	18
8	2776	307.970870315254	19
8	2778	308.955504376955	20
8	2803	313.023344284605	19
8	2808	313.193788305342	18
8	2815	313.44379397291	17
8	2830	318.78303142432	18
8	2835	320.45176517387	17
8	2840	320.681936218924	16
8	2857	321.664043352979	17
8	2894	325.107476100728	18
8	2896	325.460628937822	19
8	2921	330.135880349734	18
8	2939	330.710206270858	19
8	2963	332.4449207931	18
8	2973	332.975198222238	17
8	2985	334.162955780423	18
8	2995	334.466055072522	17
8	2999	334.485713165797	18
8	3009	338.020099797181	19
8	3011	339.21313318422	20
8	3036	350.368596981978	19
8	3048	351.38345011972	20
8	3115	359.616983106551	19
8	3148	372.734251181098	18
8	3158	374.021403131931	17
8	3173	375.797267859646	16
8	3178	375.885709790323	15
8	3185	375.968391037212	16
8	3195	376.958917925166	15
8	3212	377.287470546511	14
8	3220	377.652572824239	13
8	3224	377.656588547582	14
8	3226	377.666979695318	15
8	3233	379.239371277739	16
8	3238	379.75194735375	17
8	3243	379.931385900092	16
8	3248	380.338053449325	15
8	3253	380.429851915758	14
8	3273	384.575282273518	13
8	3278	384.607859997869	12
8	3285	384.948626263584	13
8	3295	385.478844277298	12
8	3299	385.520007566377	13
8	3314	385.904700262087	12
8	3344	387.19257642468	11
8	3367	387.530382696109	10
8	3376	387.7448224099	9
8	3386	388.141227137187	10
8	3399	388.772684660282	9
8	3411	389.489469499118	10
8	3415	390.755673644757	11
8	3418	390.833180086042	10
8	3423	391.012698590568	9
8	3435	391.896660587917	10
8	3440	392.171420732026	9
8	3452	393.771343170999	10
8	3456	395.334272489955	11
8	3466	397.610290239282	12
8	3468	398.092757373041	13
8	3472	398.117723980909	14
8	3490	398.971987567693	13
8	3497	399.144360279207	14
8	3499	400.942360851458	15
8	3501	401.049667982007	16
8	3506	402.80555555775	15
8	3526	404.994044657581	14
8	3538	406.23298810157	15
8	3553	408.301777959474	14
8	3563	408.588814107956	13
8	3568	408.819498925242	12
8	3578	408.924712391777	11
8	3590	409.32027286866	10
8	3607	410.194005966691	11
8	3612	411.802210862698	12
8	3639	415.427924403014	13
8	3653	416.178445119901	14
8	3668	417.297947725465	15
8	3682	418.782021185018	16
8	3687	420.10757693198	17
8	3689	420.298698971565	18
8	3711	423.957302446811	19
8	3718	426.87167314649	20
8	3728	431.935721079318	19
8	3733	432.120618164185	18
8	3738	432.130770886498	17
8	3760	434.917121064173	16
8	3768	435.268962416684	15
8	3780	435.468681157732	16
8	3782	435.698538933168	17
8	3784	435.857275044465	18
8	3786	437.100654894909	19
8	3806	440.207483662972	18
8	3836	443.918848639391	17
8	3841	443.959093461031	16
8	3856	444.534905716473	15
8	3876	445.916289200164	14
8	3881	446.003694513702	13
8	3890	446.366960109887	14
8	3918	447.262598967658	13
8	3950	449.91419879105	14
8	3957	452.558680338209	15
8	3962	452.82425171833	14
8	3971	452.876080818407	15
8	3991	454.87685171227	16
8	3993	454.968250488009	17
8	3998	456.002912535735	16
8	4003	456.028903375698	15
8	4013	456.149463508239	14
8	4022	458.034213783653	15
8	4035	458.222383221353	14
8	4042	458.414124260759	15
8	4054	459.548543391845	16
8	4061	460.748275719492	15
8	4094	464.625357663156	14
8	4101	465.274540088395	15
8	4103	466.095482299359	16
8	4115	467.949934570261	17
8	4135	471.564851695526	16
8	4142	475.0604170123	17
8	4182	478.920818109149	16
8	4191	479.086448544792	17
8	4201	482.644357773315	18
8	4203	482.933223882102	19
8	4250	486.91901039856	18
8	4290	488.382614818212	19
8	4310	489.97953254932	18
8	4315	490.015665181961	17
8	4330	490.778043195847	16
8	4340	491.277333687817	15
8	4347	491.666627386457	16
8	4354	492.100603310704	17
8	4361	492.627421782021	18
8	4371	494.074786996687	17
8	4388	494.926480121683	16
8	4418	496.08938860453	15
8	4430	496.291775032168	16
8	4445	497.00304745984	17
8	4455	497.936312359739	16
8	4480	499.01766062056	15
8	4492	499.932354009583	16
8	4497	501.655055232348	15
8	4514	502.646516342932	16
8	4554	505.116771312934	15
8	4581	509.679101943143	16
8	4583	511.451863954656	17
8	4588	512.786535912162	16
8	4610	515.623330455998	17
8	4617	516.288775452778	18
8	4632	521.061505840145	17
8	4644	521.611650420997	18
8	4646	522.663785841593	19
8	4651	525.194890440437	18
8	4713	530.165575505055	19
8	4728	535.174039413218	18
8	4740	535.640391520287	19
8	4750	538.519512976356	18
8	4757	539.728564865614	19
8	4777	545.315769663888	18
8	4794	545.885370990802	19
8	4799	546.5464928419	18
8	4804	546.627491563903	17
8	4814	547.302370950071	16
8	4819	547.32181654768	15
8	4869	550.480247811101	14
8	4881	552.146301909982	15
8	4891	552.680382581699	14
8	4898	553.232125320933	15
8	4903	553.34932118719	14
8	4908	553.400889888945	13
8	4913	553.421160684759	12
8	4933	554.2400999707	11
8	4940	554.257351912918	12
8	4952	555.593117392793	13
8	4954	555.650475397491	14
8	4959	559.358116788515	13
8	4964	559.474082696735	12
8	4986	562.800986236292	13
8	4988	563.762405113954	14
8	5025	568.266679442392	15
8	5027	569.086158930958	16
8	5057	573.187293349977	15
8	5062	573.196945637453	14
8	5067	573.408277649582	13
8	5084	573.955157225319	14
8	5086	574.340396141924	15
8	5111	577.321782569303	14
8	5123	579.579370705632	15
8	5125	580.317997058003	16
8	5127	580.346572847514	17
8	5136	582.601800647713	18
8	5171	583.985771828204	17
8	5194	585.021741996903	16
8	5204	585.255835047616	15
8	5226	587.471188226876	16
8	5238	588.407071594879	17
8	5240	591.944719227828	18
8	5242	595.271733462297	19
8	5254	596.866758748887	20
8	5284	599.600712082846	19
8	5306	600.549750161245	18
8	5316	600.742261180456	19
8	5355	605.816767119862	20
8	5363	605.934999074409	19
8	5375	607.834035414538	20
8	5385	611.077486530548	19
8	5417	612.358419336386	18
8	5442	616.475415106378	19
8	5462	622.752775017858	18
8	5479	623.551519846583	17
8	5519	626.482568718358	16
8	5524	626.630177196955	15
8	5528	626.640933960377	16
8	5566	629.262751558289	17
8	5578	631.1575485614	18
8	5580	633.606133754463	19
8	5590	636.584074987787	18
8	5597	637.779823030704	19
8	5619	640.926864929196	20
8	5634	642.048318573927	19
8	5649	643.043066154222	18
8	5659	643.549278000946	17
8	5666	643.705111613397	16
8	5671	643.720526409294	15
8	5676	643.798138979271	14
8	5683	644.045309878628	15
8	5692	646.57480007251	16
8	5695	646.603910100137	15
8	5708	646.998894856524	14
8	5720	647.901149440095	13
8	5765	652.919358555305	14
8	5772	653.38641176669	15
8	5794	656.279213760602	16
8	5806	656.669993065879	17
8	5823	658.556893043028	18
8	5840	660.115391277867	17
8	5855	660.796299798123	16
8	5865	661.078089583651	15
8	5883	661.668595923245	14
8	5902	662.512899257806	15
8	5910	662.773232727296	14
8	5917	663.080885241431	15
8	5919	665.352731072832	16
8	5921	666.155358850296	17
8	5923	668.564769440265	18
8	5928	668.805742034366	17
8	5943	669.395465737881	16
8	5950	669.921715426615	17
8	5952	670.038793978499	18
8	5954	671.957088106217	19
8	5956	672.156201173819	20
8	5986	684.692249532389	19
8	5998	689.8798245058	20
8	6013	696.09911035407	19
8	6085	701.104319345879	18
8	6098	701.2786729195	17
8	6145	705.464946289047	16
8	6168	706.092914387131	17
8	6171	706.214381173677	16
8	6190	706.439693365136	15
8	6197	706.468820584858	14
8	6252	711.550839164985	15
8	6267	713.577504033401	14
8	6312	716.955724718796	13
8	6337	717.895655300192	12
8	6344	718.184086629868	13
8	6346	718.543077914786	14
8	6353	721.807970230661	15
8	6355	722.184960816618	16
8	6367	724.929101596163	17
8	6369	725.700404038378	18
8	6401	728.379398539471	17
8	6424	730.926038364018	16
8	6439	732.402546737493	15
8	6459	733.318587040755	14
8	6476	733.998590403511	15
8	6478	734.143560363144	16
8	6483	734.398825643471	15
8	6493	734.481955803131	14
8	6498	734.559330573956	13
8	6505	734.959825101703	14
8	6550	736.819258606226	13
8	6555	736.824135367872	12
8	6572	738.706980686629	13
8	6584	740.735729665629	14
8	6586	740.845909201879	15
8	6596	741.80132741092	14
8	6613	743.110816410561	15
8	6615	744.422168762609	16
8	6625	746.411507931973	15
8	6645	747.229004709833	14
8	6662	747.937394849708	13
8	6669	748.562576020831	14
8	6672	748.794074861651	13
8	6681	749.422353480103	14
8	6699	754.785742184572	13
8	6706	754.845951746073	14
8	6718	756.024761037884	13
8	6726	756.122244848703	12
8	6736	758.364574119542	11
8	6740	758.555963537321	12
8	6745	758.883758169735	13
8	6767	761.687604726028	14
8	6777	762.678713475251	13
8	6796	765.031351038821	14
8	6811	765.867920791593	15
8	6833	766.630113065449	14
8	6841	766.75699976215	13
8	6845	766.797289101182	14
8	6848	766.828305412975	13
8	6858	767.170475415481	12
8	6875	767.787922698464	13
8	6877	768.311216141888	14
8	6879	769.861145533758	15
8	6881	770.416363732705	16
8	6913	773.360507414032	17
8	6918	773.747139355791	16
8	6928	775.039387529599	15
8	6998	777.368448166493	14
8	7023	778.262305119868	13
8	7030	778.473431806284	14
8	7035	778.886694556666	13
8	7047	779.806902902834	14
8	7052	780.234868615503	13
8	7059	781.455622545393	14
8	7066	782.331605776658	15
8	7073	784.079247904499	16
8	7075	785.484753187289	17
8	7086	788.062575858489	18
8	7091	788.266980943771	17
8	7099	788.32008182555	16
8	7127	789.887495772352	15
8	7132	790.058493917643	14
8	7137	790.116432410479	13
8	7152	792.56271297134	12
8	7157	792.614219050686	11
8	7164	794.142280639492	12
8	7166	795.797255753837	13
8	7168	797.418213821169	14
8	7170	797.834487379824	15
8	7172	799.346119269393	16
8	7184	800.55298059084	17
8	7204	802.46897539456	16
8	7214	802.837183676324	15
8	7219	802.852112865927	14
8	7233	803.846535376074	15
8	7243	806.823174196288	16
8	7250	810.837194279323	17
8	7262	811.704347088576	18
8	7264	812.070373518424	19
8	7279	814.357679299855	18
8	7301	821.459936162398	19
8	7313	824.675239507334	20
8	7363	828.192769643584	19
8	7388	840.247293505394	18
8	7393	840.276316220958	17
8	7400	843.938580732291	18
8	7405	846.446223145674	17
8	7410	846.51034638324	16
8	7417	846.691518287911	17
8	7427	850.660007863182	16
8	7449	851.802919177313	17
8	7471	854.339858021279	18
8	7481	855.002253820813	17
8	7491	855.773958076797	16
8	7500	856.122175735931	17
8	7530	858.700391396406	18
8	7532	859.960873108325	19
8	7534	861.814690654077	20
8	7554	872.346128482089	19
8	7576	880.602380348306	20
8	7596	886.031626897872	19
8	7606	886.532482345422	18
8	7618	888.212574022113	19
8	7633	889.088562120162	18
8	7643	889.301359379852	17
8	7670	892.040974596903	18
8	7682	893.491260436329	19
8	7687	896.921302857202	18
8	7699	898.112036574781	19
8	7721	902.947150919263	20
8	7726	906.594439607744	19
8	7741	908.441259005518	18
8	7761	912.340206720843	17
8	7776	913.473084086241	16
8	7803	917.867174217939	17
8	7805	920.194034583961	18
8	7842	921.918118819909	19
8	7872	925.989370609242	18
8	7892	927.459464863547	17
8	7914	928.927128129387	18
8	7916	930.016343665621	19
8	7926	932.051149653481	18
8	7946	934.197059163213	17
8	7953	934.300483820683	18
8	7955	934.687177218277	19
8	7957	934.82348730666	20
8	8002	941.558210631643	19
8	8022	943.600828237398	18
8	8064	945.452858133734	17
8	8069	945.748482237792	16
8	8094	946.583644692266	15
8	8104	946.867079779104	14
8	8109	946.892341600223	13
8	8117	947.067333453123	12
8	8121	947.068444371652	13
8	8123	947.09590956858	14
8	8130	947.333088479786	15
8	8138	947.525208908486	14
8	8145	947.81651482739	15
8	8175	950.484501224325	14
8	8189	951.191218846841	15
8	8194	951.459287568855	14
8	8199	951.681448688424	13
8	8209	951.897293548624	12
8	8219	952.554272952332	13
8	8221	953.048619838853	14
8	8235	953.598944607124	15
8	8250	953.929974912731	14
8	8255	953.942530111774	13
8	8270	954.544627275554	12
8	8293	955.121273998565	11
8	8300	955.28175229589	12
8	8305	955.657210879313	11
8	8312	955.857018560801	12
8	8329	957.997572280288	13
8	8341	961.395832239155	14
8	8356	964.00261847267	13
8	8381	964.826368643482	12
8	8395	965.611689871009	13
8	8397	965.61882221348	14
8	8412	966.793480545211	15
8	8422	967.758267007183	14
8	8427	967.807118376094	13
8	8434	968.278055392506	14
8	8439	968.746862157852	13
8	8444	968.807417312188	12
8	8451	969.627201521148	13
8	8458	971.429481513947	14
8	8463	973.477189534156	13
8	8468	973.504882349699	12
8	8477	976.033027310017	13
8	8482	976.479970670562	14
8	8487	976.655550882906	13
8	8514	977.322907475089	14
8	8521	978.646651058745	15
8	8533	987.16097423827	16
8	8535	987.218410677098	17
8	8537	987.92507467764	18
8	8539	987.980208079051	19
8	8554	991.999018596038	18
8	8594	997.640558451182	17
8	8603	998.086660065807	18
8	8631	1004.929278602662	17
8	8636	1005.23367939495	16
8	8643	1005.345631337079	17
8	8655	1005.906004983998	18
8	8660	1005.947960114333	17
8	8664	1006.07986673907	18
8	8682	1006.897704530512	17
8	8687	1006.915661497998	16
8	8701	1007.547087378544	15
8	8712	1007.840195390156	14
8	8741	1010.556804093289	15
8	8746	1011.346438965448	16
8	8756	1014.422997297108	15
8	8763	1014.75764342358	16
8	8778	1016.723727487529	15
8	8787	1017.07514573988	16
8	8790	1017.132512441127	15
8	8817	1019.916635904515	16
8	8827	1020.147684128905	15
8	8854	1021.844491365975	16
8	8864	1023.243035311666	15
8	8881	1024.819838627211	16
8	8923	1028.766169478196	15
8	8936	1029.838435928979	14
8	8943	1030.209635663321	15
8	8950	1031.10524889172	16
8	8959	1032.648291704582	17
8	8964	1033.2289036598	18
8	9006	1039.272992062659	19
8	9026	1042.266915094255	18
8	9041	1043.348198205407	17
8	9051	1044.210986600117	16
8	9058	1044.753697759257	17
8	9063	1045.053809120962	16
8	9103	1046.571387379196	15
8	9153	1048.451307696575	14
8	9170	1049.631381727901	15
8	9187	1051.520508819462	16
8	9192	1051.8231825249	15
8	9196	1052.020051038384	16
8	9219	1053.186904959196	15
8	9246	1054.764427734781	14
8	9251	1054.772883889611	13
8	9259	1054.989544776199	12
8	9264	1055.129318561015	11
8	9269	1055.145608567237	10
8	9273	1055.401881224589	11
8	9276	1055.449037589517	10
8	9288	1056.026315306948	11
8	9318	1057.955176401822	10
8	9330	1058.079449760031	11
8	9332	1059.612782544309	12
8	9334	1060.004841904507	13
8	9336	1060.199694964788	14
8	9338	1061.040186281744	15
8	9345	1062.775089080527	16
8	9347	1063.201775991295	17
8	9373	1064.966336689579	16
8	9383	1065.321315747603	15
8	9427	1067.68040336381	14
8	9439	1069.527466934898	15
8	9469	1070.273175224135	14
8	9474	1070.303193189508	13
8	9481	1070.477864870463	14
8	9488	1072.4703768514	15
8	9527	1075.58399373844	16
8	9530	1075.651202609187	15
8	9547	1078.167211269102	16
8	9549	1078.270020874634	17
8	9551	1078.321354781556	18
8	9561	1079.426403633087	17
8	9566	1079.49484178925	16
8	9576	1079.721459565605	15
8	9581	1079.886562299779	14
8	9588	1080.498148715171	15
8	9595	1081.689711015402	16
8	9597	1082.568382127309	17
8	9599	1082.731890116685	18
8	9606	1084.076852068192	19
8	9621	1084.464201044476	18
8	9646	1085.441538557226	17
8	9651	1085.594928873725	16
8	9661	1085.617149813063	15
8	9666	1086.069357892768	14
8	9678	1086.939995609762	15
8	9682	1087.112901467662	16
8	9692	1088.188283963352	17
8	9714	1089.229891654801	18
8	9721	1090.469053831355	19
8	9756	1093.320464662688	18
8	9783	1102.444593989409	19
8	9793	1103.997215750453	18
8	9828	1106.755474761187	17
8	9848	1109.325291182032	16
8	9873	1110.450906102353	15