version 2
run Multitask30-5-20150106-11:37:57-1888
attr configname Multitask30
attr datetime 20150106-11:37:57
attr experiment Multitask30
attr inifile omnetpp.ini
attr iterationvars ""
attr iterationvars2 $repetition=5
attr measurement ""
attr network Multitask
attr processid 1888
attr repetition 5
attr replication #5
attr resultdir results
attr runnumber 5
attr seedset 5

vector 8  Multitask.allocateQ2  queueLength:vector  ETV
attr interpolationmode  sample-hold
attr title  "queue length, vector"
vector 11  Multitask.queue3  queueLength:vector  ETV
attr interpolationmode  sample-hold
attr title  "queue length, vector"
vector 13  Multitask.queue3  busy:vector  ETV
attr interpolationmode  sample-hold
attr title  "server busy state, vector"
vector 15  Multitask.queue4  queueLength:vector  ETV
attr interpolationmode  sample-hold
attr title  "queue length, vector"
vector 17  Multitask.queue4  busy:vector  ETV
attr interpolationmode  sample-hold
attr title  "server busy state, vector"
vector 19  Multitask.queue5  queueLength:vector  ETV
attr interpolationmode  sample-hold
attr title  "queue length, vector"
vector 21  Multitask.queue5  busy:vector  ETV
attr interpolationmode  sample-hold
attr title  "server busy state, vector"
vector 23  Multitask.queue6  queueLength:vector  ETV
attr interpolationmode  sample-hold
attr title  "queue length, vector"
vector 25  Multitask.queue6  busy:vector  ETV
attr interpolationmode  sample-hold
attr title  "server busy state, vector"
vector 27  Multitask.queue7  queueLength:vector  ETV
attr interpolationmode  sample-hold
attr title  "queue length, vector"
vector 29  Multitask.queue7  busy:vector  ETV
attr interpolationmode  sample-hold
attr title  "server busy state, vector"
vector 30  Multitask.resourceCPU  amount:vector  ETV
attr interpolationmode  sample-hold
attr title  "available resource, vector"
vector 12  Multitask.queue3  queueingTime:vector  ETV
attr interpolationmode  none
attr title  "queueing time at dequeue, vector"
attr unit  s
vector 16  Multitask.queue4  queueingTime:vector  ETV
attr interpolationmode  none
attr title  "queueing time at dequeue, vector"
attr unit  s
vector 20  Multitask.queue5  queueingTime:vector  ETV
attr interpolationmode  none
attr title  "queueing time at dequeue, vector"
attr unit  s
vector 24  Multitask.queue6  queueingTime:vector  ETV
attr interpolationmode  none
attr title  "queueing time at dequeue, vector"
attr unit  s
vector 28  Multitask.queue7  queueingTime:vector  ETV
attr interpolationmode  none
attr title  "queueing time at dequeue, vector"
attr unit  s
vector 9  Multitask.allocateQ2  queueingTime:vector  ETV
attr interpolationmode  none
attr title  "queueing time at dequeue, vector"
attr unit  s
vector 0  Multitask.sink  lifeTime:vector  ETV
attr interpolationmode  none
attr title  "lifetime of arrived jobs, vector"
attr unit  s
vector 1  Multitask.sink  totalQueueingTime:vector  ETV
attr interpolationmode  none
attr title  "the total time spent in queues by arrived jobs, vector"
attr unit  s
vector 4  Multitask.sink  queuesVisited:vector  ETV
attr interpolationmode  none
attr title  "the total number of queues visited by arrived jobs, vector"
vector 3  Multitask.sink  totalServiceTime:vector  ETV
attr interpolationmode  none
attr title  "the total time spent  by arrived jobs, vector"
attr unit  s
vector 2  Multitask.sink  totalDelayTime:vector  ETV
attr interpolationmode  none
attr title  "the total time spent in delay nodes by arrived jobs, vector"
attr unit  s
vector 5  Multitask.sink  delaysVisited:vector  ETV
attr interpolationmode  none
attr title  "the total number of delays visited by arrived jobs, vector"
vector 6  Multitask.sink  generation:vector  ETV
attr interpolationmode  none
attr title  "the generation of the arrived jobs, vector"
0	13536	1569.54923696476	1569.5492369648
0	13542	1569.573976070007	1569.57397607
0	13572	1576.137327170497	1576.1373271705
0	13583	1576.473437761589	1576.4734377616
0	13643	1583.727772436437	1583.7277724364
0	13652	1583.946037342854	1583.9460373429
0	13668	1584.627043851027	1584.627043851
0	13689	1585.564312510314	1585.5643125103
0	13695	1585.59334948331	1585.5933494833
0	13716	1594.437318924869	1594.4373189249
0	13803	1600.855990442366	1600.8559904424
0	13820	1601.678178319695	1601.6781783197
0	13826	1601.810943918648	1601.8109439186
0	13835	1601.866210923578	1601.8662109236
0	13891	1608.332384471665	1608.3323844717
0	13932	1618.082574906048	1618.082574906
0	13938	1618.088337852118	1618.0883378521
0	13974	1625.851813240738	1625.8518132407
0	14007	1630.946740753197	1630.9467407532
0	14013	1631.012703434356	1631.0127034344
0	14040	1631.475281184406	1631.4752811844
0	14045	1631.494789410025	1631.49478941
0	14054	1634.452927494029	1634.452927494
0	14074	1636.618390657906	1636.6183906579
0	14086	1638.823295213711	1638.8232952137
1	13536	1569.54923696476	1291.4709263898
1	13542	1569.573976070007	1302.9746659868
1	13572	1576.137327170497	1247.7396691423
1	13583	1576.473437761589	1224.4265396889
1	13643	1583.727772436437	1314.1995309357
1	13652	1583.946037342854	1316.4077053633
1	13668	1584.627043851027	1262.4146905862
1	13689	1585.564312510314	1284.0963789475
1	13695	1585.59334948331	1268.1293251671
1	13716	1594.437318924869	1264.1339013543
1	13803	1600.855990442366	1273.1245294619
1	13820	1601.678178319695	1206.6690431132
1	13826	1601.810943918648	1373.2441444336
1	13835	1601.866210923578	1286.7738300128
1	13891	1608.332384471665	1203.9728426343
1	13932	1618.082574906048	1305.7994566673
1	13938	1618.088337852118	1330.5943086147
1	13974	1625.851813240738	1270.1548412985
1	14007	1630.946740753197	1298.1044786702
1	14013	1631.012703434356	1335.1739320966
1	14040	1631.475281184406	1311.4321759552
1	14045	1631.494789410025	1300.3594584907
1	14054	1634.452927494029	1300.2662713099
1	14074	1636.618390657906	1277.2274845513
1	14086	1638.823295213711	1293.9649075319
2	13536	1569.54923696476	0
2	13542	1569.573976070007	0
2	13572	1576.137327170497	0
2	13583	1576.473437761589	0
2	13643	1583.727772436437	0
2	13652	1583.946037342854	0
2	13668	1584.627043851027	0
2	13689	1585.564312510314	0
2	13695	1585.59334948331	0
2	13716	1594.437318924869	0
2	13803	1600.855990442366	0
2	13820	1601.678178319695	0
2	13826	1601.810943918648	0
2	13835	1601.866210923578	0
2	13891	1608.332384471665	0
2	13932	1618.082574906048	0
2	13938	1618.088337852118	0
2	13974	1625.851813240738	0
2	14007	1630.946740753197	0
2	14013	1631.012703434356	0
2	14040	1631.475281184406	0
2	14045	1631.494789410025	0
2	14054	1634.452927494029	0
2	14074	1636.618390657906	0
2	14086	1638.823295213711	0
3	13536	1569.54923696476	117.11120709883
3	13542	1569.573976070007	121.96601991514
3	13572	1576.137327170497	74.141665929776
3	13583	1576.473437761589	139.20156092839
3	13643	1583.727772436437	125.69241382781
3	13652	1583.946037342854	95.598173337658
3	13668	1584.627043851027	137.76553137383
3	13689	1585.564312510314	147.85033468033
3	13695	1585.59334948331	99.283058384169
3	13716	1594.437318924869	117.71079250457
3	13803	1600.855990442366	145.20397795677
3	13820	1601.678178319695	190.642765131
3	13826	1601.810943918648	93.21119844742
3	13835	1601.866210923578	212.34488862018
3	13891	1608.332384471665	107.79295865918
3	13932	1618.082574906048	129.67478296838
3	13938	1618.088337852118	132.19677983253
3	13974	1625.851813240738	125.3594831897
3	14007	1630.946740753197	99.990802752479
3	14013	1631.012703434356	96.006892731517
3	14040	1631.475281184406	102.90765734626
3	14045	1631.494789410025	140.385288036
3	14054	1634.452927494029	132.11361301464
3	14074	1636.618390657906	161.98430843998
3	14086	1638.823295213711	130.75628202946
4	13536	1569.54923696476	47
4	13542	1569.573976070007	58
4	13572	1576.137327170497	38
4	13583	1576.473437761589	61
4	13643	1583.727772436437	48
4	13652	1583.946037342854	48
4	13668	1584.627043851027	50
4	13689	1585.564312510314	64
4	13695	1585.59334948331	36
4	13716	1594.437318924869	47
4	13803	1600.855990442366	55
4	13820	1601.678178319695	73
4	13826	1601.810943918648	39
4	13835	1601.866210923578	82
4	13891	1608.332384471665	47
4	13932	1618.082574906048	53
4	13938	1618.088337852118	52
4	13974	1625.851813240738	44
4	14007	1630.946740753197	54
4	14013	1631.012703434356	50
4	14040	1631.475281184406	46
4	14045	1631.494789410025	60
4	14054	1634.452927494029	52
4	14074	1636.618390657906	61
4	14086	1638.823295213711	51
5	13536	1569.54923696476	0
5	13542	1569.573976070007	0
5	13572	1576.137327170497	0
5	13583	1576.473437761589	0
5	13643	1583.727772436437	0
5	13652	1583.946037342854	0
5	13668	1584.627043851027	0
5	13689	1585.564312510314	0
5	13695	1585.59334948331	0
5	13716	1594.437318924869	0
5	13803	1600.855990442366	0
5	13820	1601.678178319695	0
5	13826	1601.810943918648	0
5	13835	1601.866210923578	0
5	13891	1608.332384471665	0
5	13932	1618.082574906048	0
5	13938	1618.088337852118	0
5	13974	1625.851813240738	0
5	14007	1630.946740753197	0
5	14013	1631.012703434356	0
5	14040	1631.475281184406	0
5	14045	1631.494789410025	0
5	14054	1634.452927494029	0
5	14074	1636.618390657906	0
5	14086	1638.823295213711	0
6	13536	1569.54923696476	0
6	13542	1569.573976070007	0
6	13572	1576.137327170497	0
6	13583	1576.473437761589	0
6	13643	1583.727772436437	0
6	13652	1583.946037342854	0
6	13668	1584.627043851027	0
6	13689	1585.564312510314	0
6	13695	1585.59334948331	0
6	13716	1594.437318924869	0
6	13803	1600.855990442366	0
6	13820	1601.678178319695	0
6	13826	1601.810943918648	0
6	13835	1601.866210923578	0
6	13891	1608.332384471665	0
6	13932	1618.082574906048	0
6	13938	1618.088337852118	0
6	13974	1625.851813240738	0
6	14007	1630.946740753197	0
6	14013	1631.012703434356	0
6	14040	1631.475281184406	0
6	14045	1631.494789410025	0
6	14054	1634.452927494029	0
6	14074	1636.618390657906	0
6	14086	1638.823295213711	0
8	0	0	0
8	163	5.439897738842	1
8	165	5.460351879179	2
8	167	5.821591321984	3
8	169	6.667740264753	4
8	171	6.702340820503	5
8	180	7.306787428948	6
8	187	9.460900065864	7
8	200	10.05906177847	6
8	207	10.164118757035	7
8	209	10.482772594805	8
8	216	12.010043619704	9
8	223	12.524290141328	8
8	243	12.805399737452	9
8	245	13.410926996216	10
8	252	14.520404809917	11
8	259	15.050423695577	12
8	266	16.517281008373	13
8	275	17.118737981656	14
8	294	17.797983296482	15
8	297	17.806852453637	14
8	310	18.197612662857	13
8	332	20.142231530791	14
8	336	20.45869857952	15
8	339	20.549552371541	14
8	346	25.085139752146	15
8	376	29.101711320607	14
8	393	35.609085453772	15
8	395	35.874416074274	16
8	397	37.229994414256	17
8	399	38.846509427468	18
8	401	39.808786065922	19
8	406	40.052647495962	18
8	411	40.119219951868	17
8	418	42.94726492908	18
8	428	44.44889529362	17
8	450	46.908296265692	18
8	467	48.553433232211	19
8	471	50.471341274699	20
8	524	63.513706917647	19
8	536	64.140200726845	18
8	544	64.200947532632	17
8	549	64.365857674125	16
8	566	65.276671497339	17
8	573	66.539269657016	18
8	587	69.487415416504	19
8	597	71.487142330817	18
8	612	72.624312639918	19
8	674	78.141476637889	20
8	694	80.482710209049	19
8	699	80.513530018506	18
8	704	80.546096648377	17
8	726	81.526636705724	18
8	733	81.71051786241	19
8	738	82.207725912429	18
8	758	83.621283487793	17
8	765	83.783749878355	18
8	782	84.107260093272	19
8	807	85.285879473058	18
8	832	90.702086762454	17
8	837	90.849197661546	16
8	849	92.124906948397	17
8	851	92.174588220291	18
8	858	96.936266540361	19
8	863	97.559450116164	18
8	873	98.067478846495	17
8	928	101.342899140371	16
8	933	101.353852532994	15
8	938	101.411507933235	14
8	943	101.41463228085	13
8	955	103.294419249579	14
8	957	103.680915276373	15
8	959	104.030372421102	16
8	961	104.175821788128	17
8	983	114.269614962208	18
8	998	115.508346089324	17
8	1003	115.508837643702	16
8	1015	117.199446547648	17
8	1027	119.003325604281	18
8	1034	121.023509307331	19
8	1046	125.565421820074	20
8	1056	126.12994683654	19
8	1071	126.702693234869	18
8	1108	127.614197017496	19
8	1130	128.388849267158	18
8	1140	128.477289058664	17
8	1163	129.123478556745	16
8	1173	129.409035909235	15
8	1180	130.938502444672	16
8	1185	131.190712143565	15
8	1190	131.192683442525	14
8	1199	131.231390613466	15
8	1276	138.612011223972	16
8	1278	138.646555441709	17
8	1286	139.368866101536	16
8	1305	142.260760088559	17
8	1350	149.00595763557	18
8	1365	150.810375988495	17
8	1412	153.833669536023	18
8	1414	154.37880941813	19
8	1419	155.784451109353	18
8	1429	156.65546725591	17
8	1439	157.838759465028	16
8	1456	159.320372455164	17
8	1458	159.97016609469	18
8	1463	161.879758557004	17
8	1473	162.322212058087	16
8	1477	162.477191836623	17
8	1484	162.655784429917	18
8	1507	165.469608390729	17
8	1512	165.513390562043	16
8	1517	165.532954781034	15
8	1526	167.417293620503	16
8	1531	167.630177003658	17
8	1533	168.961590206193	18
8	1535	169.715545010898	19
8	1540	170.934208388396	18
8	1572	173.835669656799	19
8	1684	183.293531488906	18
8	1692	183.324953479178	17
8	1704	184.251117080052	18
8	1714	184.886740159382	17
8	1731	185.243970632984	16
8	1739	185.39299582563	15
8	1749	185.669834014647	14
8	1756	186.346278106491	15
8	1758	188.136057514016	16
8	1765	189.672799240352	17
8	1785	192.660464653181	16
8	1790	192.715630485813	15
8	1802	193.52953059879	16
8	1809	194.055849417515	17
8	1816	196.330807910848	18
8	1826	197.485669427249	17
8	1833	199.380631574311	18
8	1840	200.517885125614	19
8	1860	204.841531034799	18
8	1885	205.815917782603	17
8	1909	209.870659467811	18
8	1914	211.081098276581	19
8	1976	216.243874253754	18
8	1984	216.514141311788	17
8	2001	217.550111966661	18
8	2036	220.964331193773	17
8	2041	220.964499211768	16
8	2051	221.361747631074	15
8	2056	221.401704223814	14
8	2093	224.83847598908	15
8	2100	226.201459345898	16
8	2112	228.923567991965	17
8	2114	229.3878068722	18
8	2129	230.957096345763	17
8	2146	235.516813057242	18
8	2175	241.322657547991	17
8	2182	241.360060971678	16
8	2195	241.47959645668	15
8	2246	243.379638736019	14
8	2253	243.742244654206	15
8	2258	244.451760821667	14
8	2263	244.468763704465	13
8	2270	244.95618081518	14
8	2277	245.640194008281	15
8	2281	246.149944614243	16
8	2284	246.170904436666	15
8	2349	249.048795738556	14
8	2356	249.60197710695	15
8	2366	249.82021703081	14
8	2398	254.761866431788	15
8	2408	255.501899935169	14
8	2430	257.612589940396	15
8	2447	258.142212648267	14
8	2452	258.147071171478	13
8	2457	258.350421782555	12
8	2462	258.425953975302	11
8	2479	258.873653339591	12
8	2487	259.144501797112	11
8	2491	259.234409190046	12
8	2493	259.310582259908	13
8	2523	261.433378484222	14
8	2525	261.89199267374	15
8	2532	262.920439712724	16
8	2554	267.936309717894	17
8	2556	268.989662469759	18
8	2566	271.444319674345	17
8	2571	271.499537541297	16
8	2575	271.708841879421	17
8	2592	273.080092773141	18
8	2605	273.461231747797	17
8	2612	274.10720426665	18
8	2614	274.410258566378	19
8	2659	277.339272794331	18
8	2674	278.450763906838	17
8	2681	278.587456242129	18
8	2683	279.853722698635	19
8	2695	283.413475170769	20
8	2717	284.259132746818	19
8	2740	287.231395210103	18
8	2757	288.195906577062	19
8	2764	289.605065978125	20
8	2789	292.707284582647	19
8	2813	293.559480015627	18
8	2818	293.592711428101	17
8	2826	293.697724303196	16
8	2838	293.915696642808	17
8	2878	299.642758740898	18
8	2898	301.159359243608	17
8	2923	301.791554590611	16
8	2935	303.254219138178	17
8	2942	304.133492235048	18
8	2954	304.950159492406	19
8	2974	309.497428391087	18
8	2984	309.619241057059	17
8	2994	309.888879410172	16
8	3008	310.132564805854	17
8	3026	311.710755081529	16
8	3036	312.022267836182	15
8	3043	312.4367058271	16
8	3045	312.723975045605	17
8	3055	315.416637263417	16
8	3090	317.300065809644	15
8	3107	319.004606645216	16
8	3114	319.966273549123	17
8	3149	326.521468168972	16
8	3164	327.002140841604	15
8	3204	331.461921743266	14
8	3226	335.520891151645	15
8	3228	336.13015597162	16
8	3230	340.371758635991	17
8	3242	343.18150801956	18
8	3254	344.385026814258	19
8	3259	344.417659578861	18
8	3264	344.475636249691	17
8	3279	345.181864850658	16
8	3314	347.339278380241	15
8	3324	348.165695537675	14
8	3341	348.426379130121	15
8	3351	349.132404693865	14
8	3356	349.336829378237	13
8	3393	351.099783249652	14
8	3398	351.3421819741	13
8	3423	351.969805211088	12
8	3445	352.671648960663	11
8	3458	352.919248997135	10
8	3463	353.190062698852	9
8	3468	353.195293090004	8
8	3478	353.398623689361	7
8	3495	355.7414534458	8
8	3502	357.617146400409	9
8	3516	358.909726969056	10
8	3524	359.230991555475	9
8	3529	359.289044223257	8
8	3534	359.336710437928	7
8	3539	359.44709692218	6
8	3544	359.493490257807	5
8	3558	359.97173427873	6
8	3563	360.111747649455	7
8	3565	360.360846342294	8
8	3567	360.60680654441	9
8	3569	363.039447234696	10
8	3571	363.33220015272	11
8	3573	363.404754804854	12
8	3575	367.886632835055	13
8	3577	368.484212831415	14
8	3584	370.153982440597	15
8	3596	371.903629646691	16
8	3613	373.330653354053	17
8	3628	375.165321514556	16
8	3635	375.906315251866	17
8	3640	376.600185816482	16
8	3655	377.298936142328	15
8	3660	377.432875636663	14
8	3664	377.44522100707	15
8	3674	378.080060535034	16
8	3676	378.133060422876	17
8	3701	380.351303057706	16
8	3716	381.619121333477	15
8	3723	381.903969918457	16
8	3725	381.911662198064	17
8	3735	382.609987075676	16
8	3777	386.919022269169	17
8	3794	390.433848293029	18
8	3819	393.476136303432	17
8	3824	393.550382905632	16
8	3831	393.87569430338	17
8	3836	394.081135767977	16
8	3841	394.11679715036	15
8	3845	394.49278606114	16
8	3850	394.933967614139	17
8	3852	395.469706959548	18
8	3857	396.036568404755	17
8	3879	396.970284439763	18
8	3889	398.800159875839	17
8	3901	399.833263772218	18
8	3911	400.365839793268	17
8	3923	401.319981176028	18
8	3938	405.050392300252	17
8	3943	405.127941938067	16
8	3948	405.224090643755	15
8	3958	405.500334507198	14
8	3963	405.51915281044	13
8	3985	406.969875800431	14
8	3992	409.125995532649	15
8	3997	409.427434213998	14
8	4014	411.190448187218	15
8	4025	412.94230542096	16
8	4038	413.508470171936	17
8	4048	414.124718659715	16
8	4075	417.85740703946	17
8	4082	419.809030281206	18
8	4084	424.020934461849	19
8	4089	424.853396725894	18
8	4109	425.673428863101	17
8	4114	425.713207959668	16
8	4136	429.672698374922	17
8	4150	430.80072619609	18
8	4155	431.65027167481	19
8	4190	438.24836127788	18
8	4195	438.327669539443	17
8	4210	438.71762211098	16
8	4222	439.112261561113	17
8	4237	440.818811797185	16
8	4254	441.813147713652	17
8	4256	443.999976036174	18
8	4258	444.494202505184	19
8	4280	447.549619301503	20
8	4285	449.470608237322	19
8	4325	460.426885778232	18
8	4350	465.981000447866	17
8	4367	468.568453731957	18
8	4369	469.642034983322	19
8	4389	475.94928413871	18
8	4418	477.326687007542	19
8	4426	477.526700362794	18
8	4456	480.628024101284	17
8	4482	481.940984088887	18
8	4513	487.971947510078	17
8	4525	493.163901279131	18
8	4530	494.121959447372	17
8	4545	494.662762716918	16
8	4559	495.114188285783	17
8	4561	495.202257426703	18
8	4624	498.832808203625	17
8	4641	502.321487599109	18
8	4661	504.942753224308	17
8	4696	506.118986861631	16
8	4716	508.665839031463	15
8	4733	509.85821311465	16
8	4735	510.081176929829	17
8	4740	510.336101745654	16
8	4745	510.409258075249	15
8	4765	511.11074867691	14
8	4777	513.269721575731	15
8	4789	515.04327211782	16
8	4831	518.828297494966	17
8	4833	519.12006353129	18
8	4837	519.647790167611	19
8	4842	520.23720421043	18
8	4887	527.104153546841	19
8	4901	527.790940765325	20
8	4921	528.673594368467	19
8	4941	534.722838280685	20
8	4981	539.697525606141	19
8	5026	546.261899158179	18
8	5038	548.096109958739	19
8	5045	549.70033450838	20
8	5055	551.965803793038	19
8	5060	552.007649491757	18
8	5087	555.686459485903	19
8	5129	564.803516713743	18
8	5136	564.867561777103	17
8	5164	567.314375611682	18
8	5176	570.872819929767	19
8	5191	572.936429682648	18
8	5201	574.644406519374	17
8	5212	574.956039333177	18
8	5214	574.985794023015	19
8	5255	577.095386447554	18
8	5265	577.413987023538	17
8	5272	577.673632520537	16
8	5276	577.769055470036	17
8	5286	578.237753977714	18
8	5309	584.136417944498	17
8	5316	585.215475343253	18
8	5318	586.830898212993	19
8	5320	593.521029284058	20
8	5330	596.359356186385	19
8	5337	597.755406854657	20
8	5342	598.469349887337	19
8	5359	601.097926385818	20
8	5394	619.30834182593	19
8	5413	620.249621004573	18
8	5434	621.087081427005	17
8	5454	621.868233602074	16
8	5459	621.890142506042	15
8	5465	622.131216645745	16
8	5473	623.217887020011	17
8	5485	631.464501241658	18
8	5487	631.939107397379	19
8	5517	634.531880828237	18
8	5527	634.608496536272	17
8	5532	634.753396210891	16
8	5544	635.409738160845	15
8	5559	635.666949003448	16
8	5561	636.93300692033	17
8	5573	639.405542530883	18
8	5578	641.692082462538	17
8	5588	641.925461768829	16
8	5603	643.781336157171	15
8	5655	645.398079943339	16
8	5672	649.292433121474	17
8	5674	649.752107270628	18
8	5684	651.450848005253	17
8	5694	652.54662844945	16
8	5709	653.584709473418	15
8	5719	654.944526696058	14
8	5729	655.108267818744	13
8	5733	655.333157694632	14
8	5746	655.993410957442	13
8	5763	656.912287651213	14
8	5773	658.190303228423	13
8	5785	660.516702337087	14
8	5807	662.556342703797	15
8	5821	665.700998326178	16
8	5823	665.732234884862	17
8	5828	666.293983556717	18
8	5838	666.997329432382	17
8	5868	670.830184131137	16
8	5878	671.497662298785	15
8	5888	671.927023858787	14
8	5895	672.115940508922	15
8	5897	673.490805712626	16
8	5899	673.560880029834	17
8	5906	674.819485711494	18
8	5926	677.133922546488	17
8	5931	677.16252450576	16
8	5951	683.902444829	15
8	6003	689.47659933055	16
8	6023	690.412472452166	15
8	6065	692.678576547285	16
8	6067	693.471928238732	17
8	6082	694.485229283792	16
8	6102	695.062902197187	15
8	6119	699.357415896777	16
8	6136	701.724813699581	17
8	6153	703.046936422393	18
8	6173	704.994808781041	17
8	6193	706.055613684553	16
8	6210	709.053903938456	17
8	6229	712.114004819693	18
8	6264	713.463915345294	19
8	6344	724.773974563773	18
8	6366	728.992872165094	19
8	6376	730.130507554865	18
8	6381	730.13066792223	17
8	6406	733.089193819675	16
8	6431	736.520600264927	15
8	6435	736.530045539067	16
8	6440	737.41628147844	17
8	6485	745.134468056054	16
8	6492	746.75660943083	17
8	6504	747.700258423735	18
8	6511	750.702507943946	19
8	6518	751.145245189719	20
8	6528	752.014747522392	19
8	6545	753.303613151523	20
8	6635	776.376329315514	19
8	6650	777.115767040183	18
8	6659	780.177430075317	19
8	6697	782.522713569828	18
8	6712	783.201248379664	17
8	6729	784.181267347396	18
8	6746	785.840037719232	19
8	6756	789.796879972301	18
8	6771	792.906365637271	17
8	6776	792.910753334687	16
8	6788	795.340511590217	17
8	6795	798.977787086842	18
8	6800	800.286099450578	17
8	6850	803.874453213497	16
8	6880	806.757741648842	15
8	6889	807.015877554915	16
8	6897	807.436104818945	15
8	6904	808.757283249133	16
8	6906	809.309837834012	17
8	6908	809.600491723219	18
8	6920	815.00993875579	19
8	6940	816.95066623091	18
8	6945	816.970893062751	17
8	6957	817.471419421633	18
8	6967	818.093302054593	17
8	6989	819.521469627814	18
8	7009	820.928132985714	17
8	7014	820.947764060786	16
8	7026	821.515080591933	17
8	7030	822.105657348515	18
8	7048	822.707778988178	17
8	7070	824.161360571107	18
8	7077	830.828306262903	19
8	7092	834.249114741229	18
8	7104	836.366896122203	19
8	7109	836.878012879666	18
8	7116	836.979981600755	17
8	7124	837.256207844281	16
8	7141	839.174262460474	17
8	7171	840.646399850385	16
8	7188	841.684715098199	17
8	7200	845.618844873343	18
8	7252	851.419669641244	19
8	7257	853.796513656457	18
8	7269	854.188968487433	17
8	7306	857.173054458967	18
8	7314	857.286191717923	17
8	7319	857.706814642897	16
8	7326	858.314042025937	17
8	7336	864.235878574878	16
8	7341	864.29611173603	15
8	7371	866.700096994126	14
8	7378	867.33235188293	15
8	7380	869.060881426746	16
8	7397	870.286166038675	17
8	7419	874.133226561029	18
8	7464	880.335490902439	17
8	7469	880.415811550575	16
8	7499	883.851003481899	15
8	7504	883.907209240968	14
8	7508	883.933547843796	15
8	7511	883.966845716053	14
8	7518	885.628404598594	15
8	7525	886.218724010792	14
8	7532	886.321526159485	13
8	7555	886.783383684901	14
8	7575	888.037790401788	13
8	7582	888.242687738447	14
8	7589	889.051265301359	15
8	7599	889.851631815702	14
8	7616	891.531671561024	15
8	7623	892.21880442473	14
8	7648	894.949159291073	15
8	7655	895.763118025854	16
8	7662	896.097586890112	17
8	7667	897.469188812356	16
8	7681	898.386059227643	17
8	7706	899.44125076736	18
8	7711	899.511538218378	17
8	7730	901.108671860213	16
8	7751	901.329032044102	15
8	7791	903.551728825765	14
8	7803	906.087839773478	15
8	7805	907.017913007181	16
8	7815	907.431682537682	15
8	7822	909.063523166102	16
8	7829	910.374833367115	17
8	7836	912.290239264069	18
8	7846	914.985194604676	17
8	7851	915.133175668274	16
8	7885	916.75865542945	17
8	7903	920.366366678849	16
8	7908	920.470615008895	15
8	7920	921.701082932057	16
8	7922	922.987521101327	17
8	7927	923.162939707881	16
8	7937	923.584307629357	15
8	7954	924.362054063923	14
8	7989	927.387254780686	15
8	7991	928.398199055826	16
8	7993	929.104025988508	17
8	8005	929.969539915743	16
8	8013	930.352021491725	15
8	8075	935.677979685901	14
8	8095	936.884700857334	13
8	8112	937.23997761834	14
8	8127	937.476335255324	13
8	8145	937.810374906396	12
8	8157	938.322805054598	13
8	8164	938.933827186765	14
8	8169	939.72474434934	13
8	8181	941.164969642821	14
8	8183	941.552214843287	15
8	8185	941.971812480105	16
8	8192	947.713374182622	17
8	8202	948.252383664125	16
8	8209	948.506770176021	17
8	8221	949.015694788336	18
8	8276	952.031135837897	17
8	8283	952.145179814364	16
8	8331	954.787841281666	15
8	8336	954.824682071082	14
8	8341	954.981104541886	13
8	8368	957.153847598364	14
8	8372	957.279599798644	15
8	8375	957.512492094152	14
8	8380	957.555927881372	13
8	8392	958.720150184668	14
8	8394	959.409596076618	15
8	8411	963.752824772203	16
8	8413	964.836091311162	17
8	8415	965.379127054183	18
8	8460	968.586449780553	17
8	8470	969.384330615937	16
8	8477	969.558613277839	17
8	8479	971.707078859778	18
8	8481	972.157688539654	19
8	8488	978.291142332224	20
8	8563	992.922313853236	19
8	8573	993.132154354059	18
8	8592	994.183034766159	17
8	8618	994.863205634269	16
8	8623	994.897937787892	15
8	8637	996.263139059564	16
8	8639	996.268742457371	17
8	8644	998.436039845259	18
8	8659	999.153773417218	17
8	8694	1006.548138796573	16
8	8701	1007.220448213508	17
8	8708	1009.106796903854	18
8	8710	1009.444692412964	19
8	8722	1012.42983114778	20
8	8734	1016.190746508845	19
8	8742	1016.436183725252	18
8	8762	1017.025723471673	17
8	8769	1017.940978409177	18
8	8771	1018.182188155245	19
8	8808	1026.610564748269	18
8	8828	1027.936186366493	19
8	8837	1029.017065202476	20
8	8845	1032.711883596262	19
8	8877	1042.340556409115	20
8	8902	1047.768720840355	19
8	8914	1048.1466244022	20
8	8919	1048.354606498944	19
8	8934	1049.617683696259	18
8	8944	1049.803461905561	17
8	8951	1050.189118696512	18
8	8968	1052.155307589842	19
8	8973	1052.618269251147	18
8	8980	1053.328681255899	19
8	9000	1058.631270508149	18
8	9062	1064.075786413626	19
8	9129	1071.490209432865	20
8	9139	1071.76683409685	19
8	9154	1072.102211619772	18
8	9161	1072.56714129873	19
8	9178	1077.059254395392	18
8	9196	1078.239957843022	17
8	9201	1078.33149949279	16
8	9208	1079.216193099733	17
8	9212	1079.773060567584	18
8	9214	1079.992009144757	19
8	9287	1084.926938599495	18
8	9317	1086.235659776592	17
8	9332	1088.299812554151	16
8	9354	1090.83634088198	17
8	9366	1092.894697794614	18
8	9368	1092.971785133623	19
8	9388	1093.974460345337	18
8	9393	1094.055282541671	17
8	9410	1095.616225215418	18
8	9420	1096.986171444985	17
8	9447	1099.617001398097	18
8	9452	1100.081482262118	17
8	9467	1101.721735820526	16
8	9479	1107.602594881345	17
8	9481	1108.430116979113	18
8	9486	1108.839571865029	17
8	9490	1108.910382512684	18
8	9503	1109.179294944045	17
8	9518	1109.853300484255	16
8	9525	1110.256766841186	17
8	9530	1111.521487244747	16
8	9552	1113.147262519045	17
8	9554	1113.374808908235	18
8	9556	1113.533192137188	19
8	9566	1114.053746885963	18
8	9571	1114.072461060835	17
8	9581	1114.719216350646	16
8	9633	1119.823782059853	17
8	9640	1120.831732330624	18
8	9645	1120.939921524176	17
8	9654	1121.98467578919	18
8	9697	1127.497137009788	17
8	9727	1136.547939070101	16
8	9737	1136.798307188613	15
8	9769	1139.691350978933	16
8	9771	1139.844590457215	17
8	9778	1140.593855884141	18
8	9783	1140.777232508529	17
8	9803	1141.161672908087	16
8	9813	1141.400349209544	15
8	9818	1141.475272180903	14
8	9833	1142.291494734357	13
8	9843	1142.715103451385	12
8	9849	1142.932054900505	13
8	9852	1143.065694127078	12
8	9865	1143.464847632524	11
8	9870	1143.5153920393	10
8	9890	1144.216579968876	9
8	9912	1147.982555664107	10
8	9914	1148.85665606886	11
8	9924	1149.370733324971	10
8	9931	1149.464911719604	11
8	9933	1150.756299541323	12
8	9935	1151.086792123819	13
8	9937	1151.949385680709	14
8	9939	1152.803271844496	15
8	9968	1155.194562491956	16
8	9971	1155.214268636568	15
8	9993	1157.855916982207	16
8	9995	1158.553856375008	17
8	9997	1159.726903963517	18
8	9999	1159.877930786675	19
8	10019	1161.541470903141	18
8	10024	1161.573071502778	17
8	10031	1162.53377318042	18
8	10061	1165.117255056218	17
8	10098	1168.549690495777	18
8	10128	1171.372390213239	17
8	10133	1171.524202708958	16
8	10138	1171.87496369324	15
8	10143	1172.097461472368	14
8	10160	1173.183832952931	15
8	10177	1174.527036003419	16
8	10179	1176.758494732493	17
8	10184	1178.792533616296	16
8	10189	1178.828372752054	15
8	10199	1179.015456456956	14
8	10203	1179.030567185794	15
8	10206	1179.159649947674	14
8	10213	1181.08409673256	15
8	10235	1182.888482846801	16
8	10245	1183.393193645764	15
8	10255	1184.969697163881	14
8	10292	1188.305831764953	15
8	10307	1190.542756326965	14
8	10324	1192.702342517858	15
8	10326	1193.066889194647	16
8	10335	1193.787882439182	17
8	10340	1196.77993920926	18
8	10369	1199.55082531426	19
8	10382	1200.049483270876	18
8	10387	1200.083403166094	17
8	10414	1201.165410959772	16
8	10422	1201.32698434998	15
8	10439	1202.240631195447	16
8	10441	1203.365200824288	17
8	10443	1204.482301688418	18
8	10445	1205.11961960206	19
8	10452	1213.186448561771	20
8	10482	1236.881306073344	19
8	10492	1238.227658615211	18
8	10512	1240.111827553936	17
8	10524	1241.471817458254	18
8	10561	1243.578446543646	17
8	10619	1246.521908367165	16