version 2
run Multitask30-24-20150106-11:38:00-3248
attr configname Multitask30
attr datetime 20150106-11:38:00
attr experiment Multitask30
attr inifile omnetpp.ini
attr iterationvars ""
attr iterationvars2 $repetition=24
attr measurement ""
attr network Multitask
attr processid 3248
attr repetition 24
attr replication #24
attr resultdir results
attr runnumber 24
attr seedset 24

vector 8  Multitask.allocateQ2  queueLength:vector  ETV
attr interpolationmode  sample-hold
attr title  "queue length, vector"
vector 11  Multitask.queue3  queueLength:vector  ETV
attr interpolationmode  sample-hold
attr title  "queue length, vector"
vector 13  Multitask.queue3  busy:vector  ETV
attr interpolationmode  sample-hold
attr title  "server busy state, vector"
vector 15  Multitask.queue4  queueLength:vector  ETV
attr interpolationmode  sample-hold
attr title  "queue length, vector"
vector 17  Multitask.queue4  busy:vector  ETV
attr interpolationmode  sample-hold
attr title  "server busy state, vector"
vector 19  Multitask.queue5  queueLength:vector  ETV
attr interpolationmode  sample-hold
attr title  "queue length, vector"
vector 21  Multitask.queue5  busy:vector  ETV
attr interpolationmode  sample-hold
attr title  "server busy state, vector"
vector 23  Multitask.queue6  queueLength:vector  ETV
attr interpolationmode  sample-hold
attr title  "queue length, vector"
vector 25  Multitask.queue6  busy:vector  ETV
attr interpolationmode  sample-hold
attr title  "server busy state, vector"
vector 27  Multitask.queue7  queueLength:vector  ETV
attr interpolationmode  sample-hold
attr title  "queue length, vector"
vector 29  Multitask.queue7  busy:vector  ETV
attr interpolationmode  sample-hold
attr title  "server busy state, vector"
vector 30  Multitask.resourceCPU  amount:vector  ETV
attr interpolationmode  sample-hold
attr title  "available resource, vector"
vector 12  Multitask.queue3  queueingTime:vector  ETV
attr interpolationmode  none
attr title  "queueing time at dequeue, vector"
attr unit  s
vector 28  Multitask.queue7  queueingTime:vector  ETV
attr interpolationmode  none
attr title  "queueing time at dequeue, vector"
attr unit  s
vector 24  Multitask.queue6  queueingTime:vector  ETV
attr interpolationmode  none
attr title  "queueing time at dequeue, vector"
attr unit  s
vector 20  Multitask.queue5  queueingTime:vector  ETV
attr interpolationmode  none
attr title  "queueing time at dequeue, vector"
attr unit  s
vector 16  Multitask.queue4  queueingTime:vector  ETV
attr interpolationmode  none
attr title  "queueing time at dequeue, vector"
attr unit  s
vector 9  Multitask.allocateQ2  queueingTime:vector  ETV
attr interpolationmode  none
attr title  "queueing time at dequeue, vector"
attr unit  s
vector 0  Multitask.sink  lifeTime:vector  ETV
attr interpolationmode  none
attr title  "lifetime of arrived jobs, vector"
attr unit  s
vector 1  Multitask.sink  totalQueueingTime:vector  ETV
attr interpolationmode  none
attr title  "the total time spent in queues by arrived jobs, vector"
attr unit  s
vector 4  Multitask.sink  queuesVisited:vector  ETV
attr interpolationmode  none
attr title  "the total number of queues visited by arrived jobs, vector"
vector 3  Multitask.sink  totalServiceTime:vector  ETV
attr interpolationmode  none
attr title  "the total time spent  by arrived jobs, vector"
attr unit  s
vector 2  Multitask.sink  totalDelayTime:vector  ETV
attr interpolationmode  none
attr title  "the total time spent in delay nodes by arrived jobs, vector"
attr unit  s
vector 5  Multitask.sink  delaysVisited:vector  ETV
attr interpolationmode  none
attr title  "the total number of delays visited by arrived jobs, vector"
vector 6  Multitask.sink  generation:vector  ETV
attr interpolationmode  none
attr title  "the generation of the arrived jobs, vector"
0	13052	1613.20032436697	1613.200324367
0	13063	1613.349078770173	1613.3490787702
0	13074	1614.403364148493	1614.4033641485
0	13130	1618.896309903592	1618.8963099036
0	13136	1618.961696496736	1618.9616964967
0	13162	1621.314739738149	1621.3147397381
0	13213	1623.76980803173	1623.7698080317
0	13234	1624.432715959747	1624.4327159597
0	13292	1634.337468150737	1634.3374681507
0	13311	1635.105010262194	1635.1050102622
0	13317	1635.246161330534	1635.2461613305
0	13380	1638.090751458684	1638.0907514587
0	13401	1639.45927903604	1639.459279036
0	13482	1650.751922838423	1650.7519228384
0	13493	1651.233948250176	1651.2339482502
0	13554	1658.028475368571	1658.0284753686
0	13565	1658.224531804482	1658.2245318045
0	13576	1658.549299721993	1658.549299722
0	13617	1660.006623622218	1660.0066236222
0	13628	1660.264748824221	1660.2647488242
0	13663	1663.101199447847	1663.1011994478
0	13682	1666.409009940005	1666.40900994
0	13704	1668.096571492916	1668.0965714929
0	13709	1668.135839043514	1668.1358390435
0	13716	1673.244710342519	1673.2447103425
1	13052	1613.20032436697	1217.6829414388
1	13063	1613.349078770173	1309.9790902998
1	13074	1614.403364148493	1339.4369904763
1	13130	1618.896309903592	1342.1517912421
1	13136	1618.961696496736	1287.8564269274
1	13162	1621.314739738149	1343.874902081
1	13213	1623.76980803173	1293.3674663254
1	13234	1624.432715959747	1392.9335598604
1	13292	1634.337468150737	1347.0935731666
1	13311	1635.105010262194	1303.3239531948
1	13317	1635.246161330534	1244.7570120484
1	13380	1638.090751458684	1331.8502079805
1	13401	1639.45927903604	1300.4397985193
1	13482	1650.751922838423	1285.9243422941
1	13493	1651.233948250176	1287.5816722921
1	13554	1658.028475368571	1281.0050203223
1	13565	1658.224531804482	1385.4544464375
1	13576	1658.549299721993	1373.5852043603
1	13617	1660.006623622218	1340.4201399073
1	13628	1660.264748824221	1302.687467429
1	13663	1663.101199447847	1305.1780813562
1	13682	1666.409009940005	1360.4203039123
1	13704	1668.096571492916	1326.372968391
1	13709	1668.135839043514	1346.381048071
1	13716	1673.244710342519	1350.4173119046
2	13052	1613.20032436697	0
2	13063	1613.349078770173	0
2	13074	1614.403364148493	0
2	13130	1618.896309903592	0
2	13136	1618.961696496736	0
2	13162	1621.314739738149	0
2	13213	1623.76980803173	0
2	13234	1624.432715959747	0
2	13292	1634.337468150737	0
2	13311	1635.105010262194	0
2	13317	1635.246161330534	0
2	13380	1638.090751458684	0
2	13401	1639.45927903604	0
2	13482	1650.751922838423	0
2	13493	1651.233948250176	0
2	13554	1658.028475368571	0
2	13565	1658.224531804482	0
2	13576	1658.549299721993	0
2	13617	1660.006623622218	0
2	13628	1660.264748824221	0
2	13663	1663.101199447847	0
2	13682	1666.409009940005	0
2	13704	1668.096571492916	0
2	13709	1668.135839043514	0
2	13716	1673.244710342519	0
3	13052	1613.20032436697	104.1016250169
3	13063	1613.349078770173	99.712354382667
3	13074	1614.403364148493	70.839344719256
3	13130	1618.896309903592	84.797300841845
3	13136	1618.961696496736	118.90752212319
3	13162	1621.314739738149	159.47166297309
3	13213	1623.76980803173	146.02445502646
3	13234	1624.432715959747	127.52307502147
3	13292	1634.337468150737	87.513965334288
3	13311	1635.105010262194	138.90092798902
3	13317	1635.246161330534	149.76969226357
3	13380	1638.090751458684	112.2275807008
3	13401	1639.45927903604	117.23379842703
3	13482	1650.751922838423	134.65256148412
3	13493	1651.233948250176	142.69920988791
3	13554	1658.028475368571	176.69211169102
3	13565	1658.224531804482	144.84276964831
3	13576	1658.549299721993	108.21533531961
3	13617	1660.006623622218	41.800027133885
3	13628	1660.264748824221	117.06213969363
3	13663	1663.101199447847	141.89428637298
3	13682	1666.409009940005	119.66763561787
3	13704	1668.096571492916	140.99924565916
3	13709	1668.135839043514	126.72980867073
3	13716	1673.244710342519	180.69198237423
4	13052	1613.20032436697	37
4	13063	1613.349078770173	51
4	13074	1614.403364148493	31
4	13130	1618.896309903592	27
4	13136	1618.961696496736	41
4	13162	1621.314739738149	70
4	13213	1623.76980803173	42
4	13234	1624.432715959747	39
4	13292	1634.337468150737	39
4	13311	1635.105010262194	47
4	13317	1635.246161330534	78
4	13380	1638.090751458684	48
4	13401	1639.45927903604	47
4	13482	1650.751922838423	66
4	13493	1651.233948250176	49
4	13554	1658.028475368571	65
4	13565	1658.224531804482	55
4	13576	1658.549299721993	32
4	13617	1660.006623622218	26
4	13628	1660.264748824221	48
4	13663	1663.101199447847	49
4	13682	1666.409009940005	58
4	13704	1668.096571492916	53
4	13709	1668.135839043514	57
4	13716	1673.244710342519	61
5	13052	1613.20032436697	0
5	13063	1613.349078770173	0
5	13074	1614.403364148493	0
5	13130	1618.896309903592	0
5	13136	1618.961696496736	0
5	13162	1621.314739738149	0
5	13213	1623.76980803173	0
5	13234	1624.432715959747	0
5	13292	1634.337468150737	0
5	13311	1635.105010262194	0
5	13317	1635.246161330534	0
5	13380	1638.090751458684	0
5	13401	1639.45927903604	0
5	13482	1650.751922838423	0
5	13493	1651.233948250176	0
5	13554	1658.028475368571	0
5	13565	1658.224531804482	0
5	13576	1658.549299721993	0
5	13617	1660.006623622218	0
5	13628	1660.264748824221	0
5	13663	1663.101199447847	0
5	13682	1666.409009940005	0
5	13704	1668.096571492916	0
5	13709	1668.135839043514	0
5	13716	1673.244710342519	0
6	13052	1613.20032436697	0
6	13063	1613.349078770173	0
6	13074	1614.403364148493	0
6	13130	1618.896309903592	0
6	13136	1618.961696496736	0
6	13162	1621.314739738149	0
6	13213	1623.76980803173	0
6	13234	1624.432715959747	0
6	13292	1634.337468150737	0
6	13311	1635.105010262194	0
6	13317	1635.246161330534	0
6	13380	1638.090751458684	0
6	13401	1639.45927903604	0
6	13482	1650.751922838423	0
6	13493	1651.233948250176	0
6	13554	1658.028475368571	0
6	13565	1658.224531804482	0
6	13576	1658.549299721993	0
6	13617	1660.006623622218	0
6	13628	1660.264748824221	0
6	13663	1663.101199447847	0
6	13682	1666.409009940005	0
6	13704	1668.096571492916	0
6	13709	1668.135839043514	0
6	13716	1673.244710342519	0
8	0	0	0
8	103	3.487546822749	1
8	105	3.803047645432	2
8	107	3.81975502654	3
8	109	3.864264277059	4
8	116	4.479390232639	5
8	118	4.563607239287	6
8	120	4.844758638193	7
8	127	6.425514029088	8
8	129	7.113511957	9
8	131	8.209003521352	10
8	133	9.642263301866	11
8	135	10.92283543837	12
8	137	12.023476241661	13
8	139	12.366735786442	14
8	143	13.464622398216	15
8	148	15.473127540006	16
8	163	16.644294874463	15
8	198	20.743106026643	14
8	213	23.555214290699	13
8	220	24.286295395345	14
8	222	26.135869865008	15
8	234	32.193084586376	16
8	244	33.189154858525	15
8	251	33.685577887674	16
8	253	41.320007796962	17
8	255	41.708920302245	18
8	272	56.424208790031	19
8	287	58.187839777942	18
8	324	67.544404531244	19
8	329	74.441284524237	18
8	336	78.225742713234	19
8	353	80.555590690602	18
8	358	80.573684464548	17
8	366	80.85077689058	16
8	371	80.961635336202	15
8	381	81.187351601042	14
8	403	82.593805241728	15
8	410	83.074561352279	16
8	415	84.860890482195	15
8	422	85.740591316469	16
8	442	88.158020929353	15
8	454	89.273760345203	16
8	481	90.541883077705	17
8	483	92.602433563351	18
8	513	97.682172844777	17
8	545	98.848186840553	16
8	557	99.440977906687	17
8	562	99.662743686683	16
8	585	100.888685588562	15
8	592	101.026909989177	14
8	607	105.092161323364	15
8	617	105.997710818024	14
8	642	108.301676336849	13
8	659	109.63684302113	14
8	666	111.529527268245	15
8	698	115.100247110737	16
8	705	121.262071127447	17
8	707	122.024647897637	18
8	732	131.274890840859	17
8	744	132.306725048371	18
8	764	135.506574512306	17
8	774	136.154815646812	16
8	821	139.476381987819	17
8	826	139.794982116027	16
8	836	139.885086067877	15
8	863	146.335661996389	16
8	865	147.307129625896	17
8	887	150.819959577848	16
8	907	151.817119110705	17
8	909	152.627244711455	18
8	923	155.526118209655	19
8	958	156.72068759475	18
8	973	157.182794025339	17
8	978	157.547361848173	16
8	991	158.690131070357	15
8	998	159.106778532318	16
8	1003	160.096120067586	15
8	1008	160.352387805501	14
8	1015	161.694535595738	15
8	1017	162.764598656336	16
8	1049	166.372076542367	17
8	1056	167.639741383583	18
8	1071	167.989187755181	17
8	1076	167.990293318309	16
8	1086	168.014086173214	15
8	1101	168.570385729673	14
8	1106	168.589092368294	13
8	1113	169.109229232954	14
8	1115	170.146708039646	15
8	1117	171.484418762268	16
8	1132	173.768758253116	15
8	1169	174.910497472727	14
8	1174	174.941395913557	13
8	1181	175.155511351944	14
8	1183	175.25515244847	15
8	1193	175.889909340584	16
8	1195	176.547326217465	17
8	1225	179.497014595991	16
8	1240	179.81420781762	15
8	1255	181.474673267853	14
8	1260	181.835839967457	13
8	1267	181.990664272372	14
8	1282	183.727720258759	13
8	1289	184.008605722072	14
8	1291	186.387799776658	15
8	1293	186.734714368618	16
8	1295	187.427931883679	17
8	1302	188.286879686325	18
8	1319	191.973200511345	19
8	1324	193.858162901767	18
8	1329	193.9242167583	17
8	1334	194.356104209166	16
8	1369	202.533295067642	15
8	1379	202.875432861048	14
8	1396	203.540676749125	15
8	1413	205.440472835027	16
8	1417	206.28157746527	17
8	1429	207.574243310687	18
8	1439	207.959765960941	19
8	1449	208.305421159478	18
8	1459	210.055139167809	17
8	1469	210.277063445052	16
8	1481	210.931471357733	15
8	1516	213.671502110853	16
8	1531	214.649570607905	15
8	1536	214.675653989532	14
8	1543	216.394370452642	15
8	1548	217.251126231513	14
8	1572	218.005310264789	15
8	1577	218.044687664509	16
8	1587	218.344783517981	15
8	1592	218.52951335151	14
8	1596	218.531485694168	15
8	1606	220.847977705243	16
8	1613	224.814347313997	17
8	1625	232.196276667554	18
8	1630	233.72143834174	17
8	1647	234.441968800284	18
8	1666	236.281501196072	19
8	1696	243.673921318462	20
8	1711	244.289461450911	19
8	1716	244.470393485117	18
8	1721	244.625466709002	17
8	1755	247.00947308245	18
8	1763	247.618474961237	17
8	1773	247.842716048729	16
8	1778	247.988515822958	15
8	1795	248.871484467979	16
8	1805	249.629880723706	15
8	1809	249.645194172389	16
8	1819	250.548321017633	17
8	1826	251.808607585217	16
8	1833	251.953930335482	15
8	1861	253.767013758815	16
8	1883	258.302049465341	17
8	1892	258.687287704968	16
8	1902	258.989321186294	15
8	1907	259.023526835237	14
8	1912	259.092092895784	13
8	1920	259.175778416697	12
8	1953	260.447845196515	11
8	1960	260.783208731132	12
8	1972	261.074815062514	11
8	1982	262.257350973459	12
8	2014	265.494680106212	13
8	2016	265.676072372403	14
8	2026	269.683503902387	13
8	2033	271.3344036034	14
8	2045	271.638297100669	15
8	2052	272.555275438227	16
8	2056	274.913429662586	17
8	2106	277.497228199008	16
8	2118	277.884872430703	15
8	2139	278.604088235701	14
8	2163	279.430635835889	15
8	2173	280.589919873039	16
8	2175	280.889261408464	17
8	2177	281.11528940998	18
8	2182	281.528626318587	17
8	2206	284.324157302261	18
8	2219	284.895723867039	17
8	2256	290.688598725566	18
8	2258	293.077505036465	19
8	2305	294.340404680246	18
8	2313	294.516381422404	17
8	2338	298.527948738524	16
8	2353	300.006899995367	15
8	2365	300.29412300639	14
8	2390	301.089586598922	13
8	2394	301.109947502858	14
8	2402	301.288035735387	15
8	2429	303.363623300931	16
8	2431	304.343312875319	17
8	2448	308.571473223592	18
8	2450	308.606798390359	19
8	2472	312.007218462527	18
8	2492	316.032199106411	19
8	2519	323.896392129434	20
8	2549	326.851710676003	19
8	2569	328.082405824134	18
8	2596	329.840099105017	19
8	2626	336.036449952559	18
8	2656	341.876529099719	17
8	2665	342.10581697267	18
8	2668	342.190582968718	17
8	2682	342.711107602678	18
8	2727	350.32427248643	19
8	2729	351.784207415988	20
8	2749	353.287599489978	19
8	2784	356.284876841264	18
8	2836	363.236112462947	17
8	2841	363.252222240563	16
8	2845	363.399185370302	17
8	2878	364.408186236325	16
8	2888	364.48917037932	17
8	2900	365.815029741829	18
8	2907	368.924689548494	19
8	2927	376.92621828013	18
8	2934	377.9215369179	19
8	3031	384.664632607336	20
8	3101	394.732624058523	19
8	3106	394.757272828632	18
8	3121	394.943163223067	17
8	3146	399.205064360695	16
8	3156	399.54290717137	15
8	3160	399.663158508433	16
8	3188	402.808170746779	15
8	3203	405.23682181954	14
8	3210	407.827304188051	15
8	3215	408.094601813118	14
8	3222	408.754925967302	15
8	3224	409.094521933146	16
8	3231	410.328361851011	17
8	3266	418.345513700564	16
8	3273	419.020375375773	17
8	3275	419.297636261565	18
8	3282	426.796361237811	19
8	3284	427.362270081416	20
8	3319	440.478241544469	19
8	3346	447.86032053575	20
8	3366	456.120630757761	19
8	3381	456.681637973648	18
8	3446	465.951673949958	17
8	3463	466.512244369965	18
8	3488	472.898918435063	17
8	3503	473.654080790931	16
8	3513	474.046349276514	15
8	3525	476.280176699072	16
8	3555	480.885919883762	15
8	3574	484.365669889452	16
8	3577	484.527093519592	15
8	3594	485.62445730765	16
8	3596	486.179737755144	17
8	3601	487.932945471385	16
8	3608	488.245480967228	17
8	3610	489.12625323564	18
8	3625	489.515434344865	17
8	3670	494.732706504916	16
8	3702	499.458426737932	17
8	3704	499.790782991615	18
8	3706	500.268256147831	19
8	3720	501.266362932728	18
8	3733	501.328995929829	17
8	3738	501.693940399852	16
8	3781	503.38325632072	15
8	3793	503.783571039443	16
8	3805	506.179196222194	17
8	3812	507.555117814456	18
8	3826	509.829802081178	19
8	3876	516.742534106635	20
8	3901	523.193880783127	19
8	3908	523.332400971172	20
8	3988	539.584365884569	19
8	3993	539.598587820874	18
8	4005	542.603769829196	19
8	4007	546.883010144165	20
8	4017	548.133861552354	19
8	4044	552.600825412613	20
8	4054	556.317891518776	19
8	4059	556.536690113119	18
8	4069	556.913331315061	17
8	4089	557.407936749697	16
8	4104	557.895478758637	15
8	4133	559.037997016801	16
8	4136	559.065092731895	15
8	4163	560.333343243667	16
8	4168	561.479633152313	15
8	4175	562.913608523408	16
8	4184	564.149374676685	17
8	4212	565.619491980074	16
8	4227	566.316075243007	15
8	4247	567.481201203703	14
8	4251	567.498832525298	15
8	4266	569.644370699501	16
8	4278	570.9609847798	17
8	4280	572.320534494948	18
8	4282	573.765004957653	19
8	4284	574.838422470107	20
8	4289	575.121887484591	19
8	4299	575.5195377644	18
8	4336	581.6620385525	19
8	4343	582.809143167552	20
8	4368	588.033896917572	19
8	4383	590.549113318742	18
8	4388	590.673072094339	17
8	4410	591.112448823762	18
8	4420	596.43813929723	17
8	4430	596.489450080676	16
8	4455	597.886111986763	15
8	4474	600.188884003924	16
8	4494	602.301608241015	15
8	4504	602.668934923747	16
8	4523	603.226010496832	15
8	4536	603.866587754156	14
8	4541	603.953409123842	13
8	4581	604.755314976822	12
8	4591	604.830026869277	11
8	4606	605.670394478384	10
8	4611	605.69151846118	9
8	4616	605.726820841601	8
8	4628	606.188117690654	9
8	4632	606.361718528728	10
8	4637	606.604329164494	11
8	4640	606.630780357354	10
8	4644	606.652228689274	11
8	4646	606.750320465652	12
8	4664	607.699165280637	11
8	4679	608.588999801158	10
8	4696	608.977956839341	11
8	4710	610.095562559254	12
8	4720	610.473633910686	13
8	4737	611.253597209716	14
8	4744	612.529614740755	15
8	4771	614.238198062679	16
8	4773	615.156436902443	17
8	4780	620.581773371193	18
8	4785	621.626365561781	17
8	4797	621.858112948145	18
8	4824	623.769557456888	19
8	4844	625.53509753967	18
8	4873	626.763198340393	19
8	4881	627.539221806362	18
8	4888	627.614467574968	19
8	4890	628.035202012057	20
8	4900	628.741482542214	19
8	4947	631.809501317558	20
8	4987	637.490806409205	19
8	5007	639.126899670518	18
8	5012	639.155245799654	17
8	5022	639.444554687256	16
8	5032	640.018366528337	15
8	5037	640.02318196697	14
8	5064	641.696036996104	15
8	5074	642.843520760145	14
8	5096	643.683291367771	15
8	5158	646.748688649539	16
8	5165	650.680113038118	15
8	5169	650.685517164889	16
8	5175	650.832454507239	15
8	5195	652.144440141988	14
8	5254	660.896930960495	15
8	5264	661.430808779575	16
8	5266	662.436806520281	17
8	5268	662.578596335906	18
8	5273	662.96752384795	17
8	5280	663.095539722406	18
8	5285	664.191661911862	17
8	5300	665.022182067277	16
8	5314	667.305080318745	17
8	5342	674.62481721163	16
8	5349	675.633716784077	17
8	5354	679.392838843988	16
8	5416	684.929525655798	17
8	5443	687.211540245965	18
8	5448	693.516909027463	17
8	5455	693.852892499928	18
8	5457	694.320906073915	19
8	5472	698.87699724752	18
8	5482	699.398247319806	17
8	5487	699.46351696454	16
8	5511	700.567674519435	17
8	5514	700.677480458837	16
8	5524	702.24497507041	15
8	5529	702.42104455899	14
8	5541	702.82158125338	15
8	5573	704.591353043242	16
8	5575	705.588406067901	17
8	5580	705.618641817031	16
8	5607	709.505086413954	17
8	5627	711.930885362565	16
8	5642	712.817974749719	15
8	5659	713.791511222026	16
8	5661	714.675770670892	17
8	5663	715.591697555337	18
8	5665	717.222233975	19
8	5707	728.721940868045	20
8	5742	740.953756446164	19
8	5751	742.602484674482	20
8	5769	743.497349529591	19
8	5783	748.926551033785	20
8	5791	749.322202006616	19
8	5796	749.339404208124	18
8	5808	750.233772299063	19
8	5823	752.806524738392	18
8	5833	754.458879367134	17
8	5843	755.34090952515	16
8	5860	756.557332367847	17
8	5862	756.572973133053	18
8	5867	757.684209274622	17
8	5872	757.688789648541	16
8	5899	760.032867987278	17
8	5909	761.827649519716	16
8	5921	762.690228105109	17
8	5923	763.4389429269	18
8	5925	767.094164560142	19
8	5927	771.185010770735	20
8	5972	789.250429932823	19
8	5994	789.967848504958	20
8	6004	791.811216027597	19
8	6014	793.251909063134	18
8	6026	794.448703889716	19
8	6031	794.920018795908	18
8	6061	798.528997432616	17
8	6078	801.162490133604	18
8	6080	806.265845351615	19
8	6082	807.672909620891	20
8	6124	818.10395396021	19
8	6142	818.605120710255	18
8	6147	818.619564254757	17
8	6247	828.317114794354	16
8	6254	828.81108657043	17
8	6261	830.031889590952	18
8	6270	833.980375872223	19
8	6280	835.308159104768	18
8	6303	838.064153977289	17
8	6318	840.583833357885	16
8	6323	840.612048971874	15
8	6345	844.700295989356	16
8	6352	845.566441250996	17
8	6354	845.879124535716	18
8	6356	848.71611495168	19
8	6358	849.710307067849	20
8	6408	860.813029157924	19
8	6423	861.92360508554	18
8	6435	864.664165645214	19
8	6485	876.417261640593	18
8	6490	876.433946306102	17
8	6502	878.085904726969	18
8	6522	882.500599560126	17
8	6532	882.821218644871	16
8	6539	883.339042853748	17
8	6541	885.702903161856	18
8	6558	892.341104596356	19
8	6562	892.731798381364	20
8	6590	896.230140566748	19
8	6600	896.385081146275	18
8	6610	896.505474143918	17
8	6637	897.323365802215	16
8	6642	897.465238492486	15
8	6655	897.961471866115	14
8	6664	899.212145497718	15
8	6679	900.205220573429	16
8	6684	900.292371981318	15
8	6691	900.380353582604	14
8	6696	900.434152992638	13
8	6706	900.87939310315	14
8	6711	901.032435509479	13
8	6716	901.239337290769	12
8	6740	902.440925822693	13
8	6755	903.876410525966	14
8	6765	904.282692642303	13
8	6784	907.238805695642	14
8	6792	908.928722722839	13
8	6797	908.942410211679	12
8	6809	909.469679953285	13
8	6811	909.966338970714	14
8	6813	910.117512056976	15
8	6818	910.566646607297	14
8	6852	917.185861930324	15
8	6859	918.121151823288	16
8	6869	919.008028395045	17
8	6884	919.765138766929	16
8	6896	920.383048972886	17
8	6901	922.873128156521	16
8	6911	923.722977286939	15
8	6916	923.742286458632	14
8	6925	923.82124006863	15
8	6927	923.867702104341	16
8	6937	925.276441316951	17
8	6944	926.767386372144	18
8	6974	929.26511277341	17
8	6991	930.600033793444	18
8	6993	931.049713313959	19
8	6995	932.668849016442	20
8	7000	934.441251095021	19
8	7009	934.818258824184	20
8	7037	943.558757448585	19
8	7067	949.283363325801	18
8	7087	951.332847247219	17
8	7097	951.476857977565	16
8	7117	952.383927713045	15
8	7174	954.938079673648	16
8	7184	955.26622644944	15
8	7221	957.707543395113	16
8	7226	958.04293526339	15
8	7233	958.297582530588	14
8	7258	959.513322667212	15
8	7263	959.708873598024	14
8	7290	960.595245052994	15
8	7297	960.972159998529	16
8	7299	961.511404587774	17
8	7301	962.638548581331	18
8	7318	965.293827875335	17
8	7328	965.728240794451	18
8	7335	968.302974930037	19
8	7337	970.506161117019	20
8	7359	971.821177297031	19
8	7372	974.617712507911	18
8	7402	976.342273952986	17
8	7409	976.859893583968	18
8	7416	978.707200732473	19
8	7423	980.901884255446	20
8	7428	984.923170597126	19
8	7438	985.278807009031	18
8	7453	986.371481375508	17
8	7460	987.224224349647	18
8	7485	988.95460519457	17
8	7495	989.279942275437	16
8	7500	989.320096307046	15
8	7512	990.616886032586	16
8	7562	995.972012656048	15
8	7572	996.629145883984	14
8	7577	996.714125965182	13
8	7587	996.925008466685	12
8	7602	997.276098980333	11
8	7607	997.297510125705	10
8	7617	997.470652718057	9
8	7624	997.684365419109	10
8	7631	998.758928837788	11
8	7643	1001.12893456605	12
8	7645	1001.164744527492	13
8	7652	1002.375788992282	14
8	7656	1002.434247738665	15
8	7676	1003.880579757204	14
8	7693	1004.349601818956	15
8	7696	1004.463945074053	14
8	7723	1007.093557598711	15
8	7725	1009.024195963591	16
8	7730	1009.273164611832	15
8	7735	1009.289951221963	14
8	7742	1009.486179712323	13
8	7760	1009.903026301649	12
8	7780	1011.030418739833	11
8	7810	1012.28052307924	10
8	7817	1012.410577284177	11
8	7824	1012.485233583198	12
8	7826	1012.651298857007	13
8	7833	1013.570756937773	14
8	7860	1014.513258519518	15
8	7864	1014.650599560103	16
8	7872	1015.074803364499	15
8	7892	1016.508552236319	14
8	7914	1018.549556726447	15
8	7936	1022.360383883574	16
8	7948	1025.155548586068	17
8	7953	1026.061574582283	16
8	7977	1027.78005859671	17
8	7987	1028.500879174855	18
8	7989	1030.762907270929	19
8	8014	1044.528843568449	18
8	8054	1047.770986076268	17
8	8061	1049.059991411904	18
8	8066	1049.579936502832	17
8	8081	1049.813982920792	16
8	8088	1050.163089102464	17
8	8118	1053.354191537501	16
8	8125	1053.61047578676	17
8	8137	1054.215057984233	18
8	8177	1057.802145331317	17
8	8186	1058.407537577983	18
8	8189	1058.428995537882	17
8	8199	1058.75541092727	16
8	8204	1058.865907072359	15
8	8226	1061.28451771949	16
8	8231	1061.758337610805	15
8	8253	1063.933026432056	16
8	8295	1068.386440258191	17
8	8305	1068.677389678458	16
8	8310	1068.680560068764	15
8	8340	1069.685537802211	14
8	8352	1069.931066467383	15
8	8359	1072.411342702592	16
8	8366	1073.298806870254	17
8	8371	1073.66447726611	16
8	8376	1073.704221306	15
8	8383	1073.844300691401	16
8	8392	1074.999117110646	17
8	8405	1077.387801792441	16
8	8429	1079.008685600957	17
8	8434	1079.169316916511	16
8	8464	1080.817784587496	15
8	8469	1080.840789793156	14
8	8477	1080.919105803508	13
8	8494	1081.366966975554	14
8	8506	1082.019528928958	15
8	8518	1082.263165940206	16
8	8520	1084.094671308669	17
8	8525	1085.077169716318	16
8	8532	1085.441914133132	17
8	8537	1086.106537221771	16
8	8554	1088.083292811405	17
8	8588	1091.700432360147	18
8	8591	1091.748499778818	17
8	8596	1091.826299000772	16
8	8600	1092.062342434559	17
8	8613	1092.301108812471	16
8	8618	1092.354345468888	15
8	8623	1092.388911491748	14
8	8630	1092.535877833827	15
8	8642	1095.571133415761	16
8	8664	1100.086826538006	17
8	8671	1100.836371855082	18
8	8706	1106.053310502966	17
8	8728	1106.930139924817	16
8	8736	1106.997941032767	15
8	8746	1107.504995770836	14
8	8758	1108.136289249164	15
8	8773	1108.955656868782	14
8	8780	1109.324592864684	15
8	8785	1109.593386191896	14
8	8789	1109.622597130301	15
8	8794	1111.551368532512	16
8	8796	1111.700752976402	17
8	8841	1119.736633845964	16
8	8856	1120.677455482418	15
8	8868	1121.219297478697	16
8	8875	1122.392329080496	17
8	8877	1123.481780448924	18
8	8879	1123.533431208089	19
8	8904	1126.323431637108	18
8	8908	1126.531926046886	19
8	8918	1126.76061556488	20
8	8928	1129.989603186616	19
8	8933	1130.046152701985	18
8	8963	1134.250189382266	17
8	8968	1134.300127178766	16
8	8982	1134.51746410569	17
8	8987	1134.605305203163	18
8	8997	1136.229115030585	17
8	9029	1140.052749438446	18
8	9031	1141.185208760421	19
8	9038	1143.546466552398	20
8	9043	1143.879730238859	19
8	9108	1148.031217494353	18
8	9128	1149.951435946091	17
8	9133	1150.029766780616	16
8	9150	1151.307461968747	17
8	9167	1151.992926475345	16
8	9171	1152.028165655095	17
8	9192	1153.487760413384	16
8	9204	1155.025078307811	17
8	9218	1157.659570722637	16
8	9239	1158.51103683095	15
8	9246	1158.548911549641	14
8	9259	1159.008669231047	13
8	9281	1162.674046447366	14
8	9288	1162.991229127317	15
8	9293	1163.326154909811	14
8	9303	1166.270842691775	13
8	9315	1167.119854337748	14
8	9330	1167.709621037318	13
8	9339	1168.897609304778	14
8	9349	1169.544427138758	15
8	9351	1169.78528389452	16
8	9376	1172.585189601429	15
8	9381	1172.610401281346	14
8	9386	1172.686915349587	13
8	9393	1172.86307137953	14
8	9403	1174.144832631259	13
8	9413	1174.34080697546	12
8	9420	1174.688250967408	13
8	9427	1174.929115918512	14
8	9442	1176.619388374866	13
8	9449	1176.657521670138	14
8	9451	1177.384955780679	15
8	9453	1177.774739890734	16
8	9455	1178.174229201636	17
8	9460	1179.919319102164	16
8	9467	1180.003808087555	17
8	9469	1181.907264556573	18
8	9474	1183.878984801044	17
8	9496	1185.904717744307	16
8	9501	1185.922467414984	15
8	9511	1186.320831877547	14
8	9521	1186.376821559619	13
8	9544	1187.10039557761	12
8	9548	1187.153279683531	13
8	9553	1187.226906652539	14
8	9570	1188.772591124912	15
8	9572	1189.221947049447	16
8	9577	1191.365328256268	15
8	9602	1192.844928504603	14
8	9607	1192.878171921887	13
8	9614	1193.604457514417	14
8	9654	1197.648849475896	13
8	9671	1201.442860110898	14
8	9681	1202.244187938282	13
8	9688	1202.909606443232	14
8	9690	1203.252785234293	15
8	9707	1206.618220172115	16
8	9724	1207.725111714936	17
8	9741	1208.708787249195	18
8	9756	1209.878259709463	17
8	9763	1210.357196739649	18
8	9768	1210.601770525755	17
8	9788	1212.88470870246	16
8	9813	1214.292512160344	15
8	9830	1215.663498783323	16
8	9835	1216.338592703316	15
8	9840	1216.446010628239	14
8	9847	1216.799914200172	15
8	9854	1216.913787277785	16
8	9856	1216.914979737522	17
8	9871	1218.529656943161	16
8	9891	1219.160836826265	15
8	9896	1219.186500884859	14
8	9903	1219.352634410398	15
8	9915	1220.252386147093	16
8	9937	1222.443303509272	15
8	9947	1222.843077188753	14
8	9967	1225.174055761208	15
8	9969	1225.203007526195	16
8	9974	1226.177076126644	15
8	9981	1226.605054234507	16
8	9988	1230.572997392578	17
8	9990	1232.691345158386	18
8	10002	1242.032972013779	19
8	10024	1253.129861535421	18
8	10028	1253.206998967543	19
8	10034	1253.281145296177	18
8	10044	1255.627193333064	17
8	10051	1256.509893461564	18
8	10081	1260.057590856697	17
8	10091	1260.290506782588	16
8	10111	1261.840979897734	15
8	10133	1262.390508294009	14
8	10156	1262.957570806844	13
8	10168	1263.418563935098	14
8	10173	1263.638721806379	13
8	10185	1263.994976565446	12