version 2
run Multitask30-14-20150106-11:37:58-2392
attr configname Multitask30
attr datetime 20150106-11:37:58
attr experiment Multitask30
attr inifile omnetpp.ini
attr iterationvars ""
attr iterationvars2 $repetition=14
attr measurement ""
attr network Multitask
attr processid 2392
attr repetition 14
attr replication #14
attr resultdir results
attr runnumber 14
attr seedset 14

vector 8  Multitask.allocateQ2  queueLength:vector  ETV
attr interpolationmode  sample-hold
attr title  "queue length, vector"
vector 11  Multitask.queue3  queueLength:vector  ETV
attr interpolationmode  sample-hold
attr title  "queue length, vector"
vector 13  Multitask.queue3  busy:vector  ETV
attr interpolationmode  sample-hold
attr title  "server busy state, vector"
vector 15  Multitask.queue4  queueLength:vector  ETV
attr interpolationmode  sample-hold
attr title  "queue length, vector"
vector 17  Multitask.queue4  busy:vector  ETV
attr interpolationmode  sample-hold
attr title  "server busy state, vector"
vector 19  Multitask.queue5  queueLength:vector  ETV
attr interpolationmode  sample-hold
attr title  "queue length, vector"
vector 21  Multitask.queue5  busy:vector  ETV
attr interpolationmode  sample-hold
attr title  "server busy state, vector"
vector 23  Multitask.queue6  queueLength:vector  ETV
attr interpolationmode  sample-hold
attr title  "queue length, vector"
vector 25  Multitask.queue6  busy:vector  ETV
attr interpolationmode  sample-hold
attr title  "server busy state, vector"
vector 27  Multitask.queue7  queueLength:vector  ETV
attr interpolationmode  sample-hold
attr title  "queue length, vector"
vector 29  Multitask.queue7  busy:vector  ETV
attr interpolationmode  sample-hold
attr title  "server busy state, vector"
vector 30  Multitask.resourceCPU  amount:vector  ETV
attr interpolationmode  sample-hold
attr title  "available resource, vector"
vector 12  Multitask.queue3  queueingTime:vector  ETV
attr interpolationmode  none
attr title  "queueing time at dequeue, vector"
attr unit  s
vector 16  Multitask.queue4  queueingTime:vector  ETV
attr interpolationmode  none
attr title  "queueing time at dequeue, vector"
attr unit  s
vector 28  Multitask.queue7  queueingTime:vector  ETV
attr interpolationmode  none
attr title  "queueing time at dequeue, vector"
attr unit  s
vector 9  Multitask.allocateQ2  queueingTime:vector  ETV
attr interpolationmode  none
attr title  "queueing time at dequeue, vector"
attr unit  s
vector 20  Multitask.queue5  queueingTime:vector  ETV
attr interpolationmode  none
attr title  "queueing time at dequeue, vector"
attr unit  s
vector 24  Multitask.queue6  queueingTime:vector  ETV
attr interpolationmode  none
attr title  "queueing time at dequeue, vector"
attr unit  s
vector 0  Multitask.sink  lifeTime:vector  ETV
attr interpolationmode  none
attr title  "lifetime of arrived jobs, vector"
attr unit  s
vector 1  Multitask.sink  totalQueueingTime:vector  ETV
attr interpolationmode  none
attr title  "the total time spent in queues by arrived jobs, vector"
attr unit  s
vector 4  Multitask.sink  queuesVisited:vector  ETV
attr interpolationmode  none
attr title  "the total number of queues visited by arrived jobs, vector"
vector 3  Multitask.sink  totalServiceTime:vector  ETV
attr interpolationmode  none
attr title  "the total time spent  by arrived jobs, vector"
attr unit  s
vector 2  Multitask.sink  totalDelayTime:vector  ETV
attr interpolationmode  none
attr title  "the total time spent in delay nodes by arrived jobs, vector"
attr unit  s
vector 5  Multitask.sink  delaysVisited:vector  ETV
attr interpolationmode  none
attr title  "the total number of delays visited by arrived jobs, vector"
vector 6  Multitask.sink  generation:vector  ETV
attr interpolationmode  none
attr title  "the generation of the arrived jobs, vector"
0	14071	1780.076994092083	1780.0769940921
0	14077	1780.091353259291	1780.0913532593
0	14099	1784.238433398293	1784.2384333983
0	14105	1784.256879425529	1784.2568794255
0	14135	1786.441887797604	1786.4418877976
0	14169	1789.839591652823	1789.8395916528
0	14185	1793.447891017986	1793.447891018
0	14191	1793.560171621556	1793.5601716216
0	14199	1793.88100627384	1793.8810062738
0	14205	1793.89473294287	1793.8947329429
0	14211	1793.931332370781	1793.9313323708
0	14217	1794.033885475645	1794.0338854756
0	14251	1795.65433836063	1795.6543383606
0	14271	1795.982816920498	1795.9828169205
0	14297	1796.347051503127	1796.3470515031
0	14306	1796.39002552287	1796.3900255229
0	14320	1796.525892630974	1796.525892631
0	14341	1797.280654069931	1797.2806540699
0	14362	1799.039352007896	1799.0393520079
0	14383	1802.06812250384	1802.0681225038
0	14458	1809.223588108702	1809.2235881087
0	14470	1809.780893648791	1809.7808936488
0	14502	1815.069678703884	1815.0696787039
0	14519	1816.916670391532	1816.9166703915
0	14526	1820.31458160363	1820.3145816036
1	14071	1780.076994092083	1373.6581566506
1	14077	1780.091353259291	1442.6942214689
1	14099	1784.238433398293	1459.8562178148
1	14105	1784.256879425529	1350.9220585698
1	14135	1786.441887797604	1433.3515527976
1	14169	1789.839591652823	1508.1484109251
1	14185	1793.447891017986	1518.5947488439
1	14191	1793.560171621556	1443.0226894229
1	14199	1793.88100627384	1469.8535449444
1	14205	1793.89473294287	1379.7373678947
1	14211	1793.931332370781	1476.1227107212
1	14217	1794.033885475645	1482.7531073255
1	14251	1795.65433836063	1445.57546994
1	14271	1795.982816920498	1456.2176924934
1	14297	1796.347051503127	1463.0409313599
1	14306	1796.39002552287	1536.4125395908
1	14320	1796.525892630974	1409.9493825802
1	14341	1797.280654069931	1480.9088016154
1	14362	1799.039352007896	1475.0212692589
1	14383	1802.06812250384	1425.9410355958
1	14458	1809.223588108702	1432.5499027243
1	14470	1809.780893648791	1481.230360955
1	14502	1815.069678703884	1461.8495522352
1	14519	1816.916670391532	1457.3099157189
1	14526	1820.31458160363	1532.8569423791
2	14071	1780.076994092083	0
2	14077	1780.091353259291	0
2	14099	1784.238433398293	0
2	14105	1784.256879425529	0
2	14135	1786.441887797604	0
2	14169	1789.839591652823	0
2	14185	1793.447891017986	0
2	14191	1793.560171621556	0
2	14199	1793.88100627384	0
2	14205	1793.89473294287	0
2	14211	1793.931332370781	0
2	14217	1794.033885475645	0
2	14251	1795.65433836063	0
2	14271	1795.982816920498	0
2	14297	1796.347051503127	0
2	14306	1796.39002552287	0
2	14320	1796.525892630974	0
2	14341	1797.280654069931	0
2	14362	1799.039352007896	0
2	14383	1802.06812250384	0
2	14458	1809.223588108702	0
2	14470	1809.780893648791	0
2	14502	1815.069678703884	0
2	14519	1816.916670391532	0
2	14526	1820.31458160363	0
3	14071	1780.076994092083	145.18187338428
3	14077	1780.091353259291	165.96855135675
3	14099	1784.238433398293	97.877600650999
3	14105	1784.256879425529	138.02741377092
3	14135	1786.441887797604	131.51864001216
3	14169	1789.839591652823	89.196434312905
3	14185	1793.447891017986	118.39035514075
3	14191	1793.560171621556	98.436057490295
3	14199	1793.88100627384	149.43690804467
3	14205	1793.89473294287	174.35563416035
3	14211	1793.931332370781	185.51527078291
3	14217	1794.033885475645	99.129717282425
3	14251	1795.65433836063	177.97998138573
3	14271	1795.982816920498	125.34968055873
3	14297	1796.347051503127	114.11129904932
3	14306	1796.39002552287	110.70806463114
3	14320	1796.525892630974	195.29410758328
3	14341	1797.280654069931	134.99644634153
3	14362	1799.039352007896	155.2679159443
3	14383	1802.06812250384	138.70243127155
3	14458	1809.223588108702	186.06903992582
3	14470	1809.780893648791	105.03183894901
3	14502	1815.069678703884	113.05097116248
3	14519	1816.916670391532	163.4076633903
3	14526	1820.31458160363	106.58948885739
4	14071	1780.076994092083	55
4	14077	1780.091353259291	53
4	14099	1784.238433398293	45
4	14105	1784.256879425529	47
4	14135	1786.441887797604	52
4	14169	1789.839591652823	50
4	14185	1793.447891017986	55
4	14191	1793.560171621556	35
4	14199	1793.88100627384	50
4	14205	1793.89473294287	49
4	14211	1793.931332370781	54
4	14217	1794.033885475645	52
4	14251	1795.65433836063	72
4	14271	1795.982816920498	60
4	14297	1796.347051503127	53
4	14306	1796.39002552287	42
4	14320	1796.525892630974	75
4	14341	1797.280654069931	56
4	14362	1799.039352007896	45
4	14383	1802.06812250384	57
4	14458	1809.223588108702	92
4	14470	1809.780893648791	52
4	14502	1815.069678703884	41
4	14519	1816.916670391532	56
4	14526	1820.31458160363	62
5	14071	1780.076994092083	0
5	14077	1780.091353259291	0
5	14099	1784.238433398293	0
5	14105	1784.256879425529	0
5	14135	1786.441887797604	0
5	14169	1789.839591652823	0
5	14185	1793.447891017986	0
5	14191	1793.560171621556	0
5	14199	1793.88100627384	0
5	14205	1793.89473294287	0
5	14211	1793.931332370781	0
5	14217	1794.033885475645	0
5	14251	1795.65433836063	0
5	14271	1795.982816920498	0
5	14297	1796.347051503127	0
5	14306	1796.39002552287	0
5	14320	1796.525892630974	0
5	14341	1797.280654069931	0
5	14362	1799.039352007896	0
5	14383	1802.06812250384	0
5	14458	1809.223588108702	0
5	14470	1809.780893648791	0
5	14502	1815.069678703884	0
5	14519	1816.916670391532	0
5	14526	1820.31458160363	0
6	14071	1780.076994092083	0
6	14077	1780.091353259291	0
6	14099	1784.238433398293	0
6	14105	1784.256879425529	0
6	14135	1786.441887797604	0
6	14169	1789.839591652823	0
6	14185	1793.447891017986	0
6	14191	1793.560171621556	0
6	14199	1793.88100627384	0
6	14205	1793.89473294287	0
6	14211	1793.931332370781	0
6	14217	1794.033885475645	0
6	14251	1795.65433836063	0
6	14271	1795.982816920498	0
6	14297	1796.347051503127	0
6	14306	1796.39002552287	0
6	14320	1796.525892630974	0
6	14341	1797.280654069931	0
6	14362	1799.039352007896	0
6	14383	1802.06812250384	0
6	14458	1809.223588108702	0
6	14470	1809.780893648791	0
6	14502	1815.069678703884	0
6	14519	1816.916670391532	0
6	14526	1820.31458160363	0
8	0	0	0
8	91	2.843456945003	1
8	94	2.873244045008	0
8	127	3.706810452209	1
8	129	3.831427582936	2
8	131	3.84818056056	3
8	133	4.039831509486	4
8	138	4.138325502273	3
8	142	4.189373933662	4
8	144	4.254645681216	5
8	147	4.27558994672	4
8	154	4.527450572191	5
8	156	4.561518525463	6
8	168	7.1973083914	7
8	170	7.214300764146	8
8	172	7.656110336907	9
8	174	7.741161461687	10
8	176	7.743847161649	11
8	178	7.747910367115	12
8	183	8.375935696662	11
8	188	8.482235017495	10
8	198	8.738064167414	9
8	215	10.761217811804	10
8	217	11.438965506466	11
8	219	12.708818878333	12
8	229	14.307689843606	11
8	234	14.331569051113	10
8	241	14.835326183072	11
8	253	16.423814367525	12
8	255	16.672112556528	13
8	257	17.4239305684	14
8	274	20.328761392959	15
8	276	20.435161338214	16
8	301	22.711983118981	15
8	331	24.10674672749	14
8	341	24.161704804836	13
8	348	24.328382360978	12
8	375	25.382873708976	13
8	377	25.496812093318	14
8	385	25.674389411733	13
8	392	25.980174459824	14
8	399	29.429755097485	15
8	403	31.60695162081	16
8	406	31.610454357923	15
8	413	32.552796274895	16
8	420	33.31167067788	17
8	425	33.377195662197	16
8	435	34.05784328196	15
8	440	34.075755719269	14
8	444	34.234619214473	15
8	487	36.181932935381	14
8	506	36.913536735256	15
8	514	37.221448415814	14
8	521	37.332554285406	15
8	553	38.492156405948	16
8	562	42.154094482699	17
8	615	51.025231379775	16
8	637	56.519334555046	17
8	639	56.81717644237	18
8	641	57.552182010057	19
8	666	62.071035947099	18
8	678	64.316602368376	19
8	698	65.961359272143	18
8	728	68.095481554702	17
8	740	69.421861909018	18
8	757	71.606932794956	19
8	774	72.657937010777	18
8	837	74.307248812755	17
8	849	75.235622196565	18
8	851	75.313263143082	19
8	853	75.841923787017	20
8	858	78.597587206083	19
8	873	79.453512222947	18
8	887	80.133725828805	19
8	895	80.437282733642	18
8	932	82.043663976713	19
8	934	82.071582266284	20
8	964	85.802010874279	19
8	1024	99.166772154589	18
8	1029	99.236212690881	17
8	1059	100.90069098205	16
8	1079	101.730366836652	15
8	1086	103.504725830297	16
8	1100	105.64673995024	17
8	1108	106.071478300462	16
8	1115	106.853035481679	17
8	1125	109.599086621233	16
8	1140	112.212044566831	15
8	1165	113.789886501582	14
8	1177	114.662557266547	13
8	1185	114.898021435012	12
8	1217	116.549214320941	13
8	1224	117.231691712422	14
8	1233	117.912695444061	15
8	1238	118.455105993408	16
8	1252	120.384606753169	17
8	1262	124.250436762099	18
8	1292	127.455728892722	17
8	1299	129.399127586006	18
8	1349	145.417463090247	17
8	1354	145.485441924397	16
8	1359	145.603340801851	15
8	1381	147.846460361425	16
8	1405	152.463024876956	17
8	1427	153.555259294304	18
8	1430	153.680670655133	17
8	1467	155.91145397212	18
8	1469	156.258449926125	19
8	1506	160.486425503241	18
8	1539	162.004844588092	17
8	1549	162.210093501775	16
8	1563	162.428327896142	15
8	1584	163.742570026689	14
8	1606	165.303958149383	15
8	1626	166.372128821877	14
8	1641	166.733027041427	13
8	1648	167.258620353425	14
8	1683	170.111623172792	13
8	1714	171.89791628591	14
8	1760	173.428205735832	13
8	1765	173.569802802506	12
8	1777	174.422961675678	13
8	1779	174.424940554645	14
8	1781	175.107031698454	15
8	1788	176.234029827406	16
8	1793	176.642688642784	15
8	1808	176.977563594083	14
8	1813	176.998137274793	13
8	1823	177.367475224718	12
8	1835	178.057579190977	13
8	1839	178.37213166926	14
8	1854	178.824727963584	15
8	1873	180.802118679876	16
8	1903	189.765999111793	15
8	1911	190.12899046287	14
8	1928	191.427767293672	15
8	1938	194.78341022942	14
8	1960	195.235224425379	13
8	1970	195.615235838968	12
8	1974	195.692967573713	13
8	1977	195.900983289897	12
8	1995	196.330003540546	11
8	2000	196.423147837414	10
8	2020	197.291408598512	9
8	2037	198.239030965827	10
8	2042	198.314655332504	9
8	2049	198.852585096846	10
8	2051	200.263333792574	11
8	2068	202.255763810757	12
8	2070	202.610015365317	13
8	2072	203.835445538278	14
8	2074	206.127044813691	15
8	2076	206.31413121326	16
8	2100	210.24873021279	17
8	2103	210.441191622829	16
8	2118	211.153242711407	15
8	2143	212.551026634847	14
8	2148	212.592236141597	13
8	2163	213.781655649439	12
8	2175	216.543806517061	13
8	2177	219.366586122813	14
8	2179	219.620254953037	15
8	2181	221.51781883343	16
8	2183	223.515915981663	17
8	2188	224.233180656874	16
8	2203	226.860382809601	15
8	2208	226.863070519488	14
8	2223	227.637421657017	13
8	2235	228.780697519339	14
8	2237	229.389414053774	15
8	2244	232.142734117898	16
8	2246	232.386401121062	17
8	2248	232.627427865414	18
8	2280	237.609827422658	19
8	2325	250.858451854284	18
8	2337	253.670886436061	19
8	2342	253.739982376081	18
8	2352	254.770325433743	17
8	2359	254.838052932849	18
8	2383	256.100163811911	19
8	2433	264.018241006981	20
8	2443	265.853408799527	19
8	2458	266.851178021631	18
8	2485	268.042814749182	19
8	2512	274.591022016642	20
8	2532	278.80604114645	19
8	2542	279.357678962851	18
8	2547	279.452305401775	17
8	2552	279.631599040709	16
8	2559	279.917920419527	15
8	2570	280.959425288478	16
8	2593	282.214369740808	17
8	2641	285.604554978241	16
8	2656	286.516415085163	15
8	2666	287.19871161584	14
8	2678	287.653469134898	15
8	2695	291.528541565591	16
8	2710	293.401984023095	15
8	2727	294.633003199862	16
8	2729	294.712361038517	17
8	2736	296.271265984537	18
8	2738	297.110356783106	19
8	2740	298.348169465115	20
8	2750	300.270630962808	19
8	2775	301.471668708374	18
8	2795	303.820781349127	17
8	2812	309.437219012488	18
8	2819	316.066732902564	19
8	2824	318.055838350807	18
8	2834	320.46473274597	17
8	2849	321.243246058511	16
8	2866	322.271559021907	17
8	2868	322.881537974623	18
8	2893	325.456572142114	17
8	2903	326.639969217904	16
8	2928	329.907647824565	15
8	2945	330.954582154658	16
8	2955	331.70556566421	15
8	2962	332.176218603118	16
8	2964	334.647278314734	17
8	2981	340.34074386468	18
8	2983	340.734756443673	19
8	3003	343.790873622521	18
8	3023	347.508052163325	17
8	3040	348.727764170905	18
8	3047	349.603483114271	19
8	3059	354.780067871875	20
8	3139	367.244947351628	19
8	3144	367.540367851731	18
8	3214	374.334689890627	17
8	3234	376.246155394044	16
8	3239	376.297511158892	15
8	3246	376.93601742187	16
8	3250	377.223066761436	17
8	3255	381.319166289548	18
8	3260	384.01876204419	17
8	3282	385.30956176068	18
8	3299	385.774657829682	17
8	3309	386.469992544517	16
8	3319	386.827532821799	17
8	3399	392.544616818544	16
8	3409	392.861516163354	15
8	3419	392.993759672566	14
8	3478	396.413518981851	13
8	3484	396.599313580549	14
8	3493	396.699188045641	13
8	3503	396.834578193998	12
8	3511	397.06133339568	11
8	3518	397.388209410599	12
8	3532	398.627922635729	13
8	3547	399.541372250904	14
8	3552	400.18665943404	13
8	3574	401.754060067743	14
8	3586	402.610122142252	13
8	3591	402.62516457357	12
8	3616	403.691092375679	11
8	3623	403.776782506335	12
8	3628	403.854840743282	11
8	3632	404.005836701808	12
8	3655	405.64779062799	13
8	3662	405.824670188565	14
8	3667	405.891020097282	13
8	3681	407.33120288161	14
8	3684	407.436535523	13
8	3698	407.885537877817	14
8	3720	409.003158755488	15
8	3723	409.078348358767	14
8	3752	409.786517871075	15
8	3772	411.004287596452	16
8	3787	412.336652783633	15
8	3794	412.475999737087	14
8	3799	412.524054640673	13
8	3812	413.04566455869	12
8	3866	414.726850236875	13
8	3876	414.864098318699	14
8	3888	417.433562491374	15
8	3893	417.79705702555	14
8	3900	419.183808929906	15
8	3910	419.513704455013	14
8	3942	421.232461058481	15
8	3952	422.937140480902	14
8	3962	423.102964156964	13
8	3977	423.682545667864	12
8	3982	423.993150064971	11
8	3989	424.597280664178	12
8	3991	424.933943610495	13
8	4003	428.284486768179	14
8	4008	431.858804522076	13
8	4020	433.054759123526	14
8	4027	435.780695808018	15
8	4039	436.983572055817	16
8	4044	437.208187344363	15
8	4056	437.704755448874	16
8	4058	439.412531876498	17
8	4060	440.754375863562	18
8	4085	443.343118718361	17
8	4092	443.397166790887	16
8	4112	445.668880665081	17
8	4127	448.576530510048	16
8	4164	454.98225378243	15
8	4182	455.251667025689	14
8	4239	457.785324584348	15
8	4249	458.264516675029	14
8	4254	458.442530712191	13
8	4261	459.829080596008	14
8	4263	461.069461168546	15
8	4275	462.278933524745	16
8	4285	462.927422571186	15
8	4302	465.331503878572	16
8	4304	466.36821681598	17
8	4306	467.869560693432	18
8	4321	469.974678282206	17
8	4331	470.106771736137	16
8	4336	470.234017087515	15
8	4360	471.477937377375	16
8	4380	472.741287558388	17
8	4385	473.046474969577	16
8	4407	475.56734307499	17
8	4409	476.019780890411	18
8	4431	477.812996200577	19
8	4443	478.848852834045	20
8	4448	480.175359188483	19
8	4465	488.116943457204	20
8	4520	492.064863691404	19
8	4530	492.252146126725	18
8	4535	492.252980262261	17
8	4547	492.775976239767	18
8	4552	493.938266527598	17
8	4564	495.528432016168	18
8	4594	497.994625885547	17
8	4606	498.170063979009	18
8	4621	500.194603861078	17
8	4656	501.798715041415	16
8	4668	503.266772240859	17
8	4708	508.107776023166	16
8	4728	509.907586500716	15
8	4738	510.347860907859	14
8	4758	513.182087257972	13
8	4762	513.411733616826	14
8	4767	513.644839958469	15
8	4769	513.859760596207	16
8	4771	514.767100143632	17
8	4776	515.879539726112	16
8	4793	517.486576975764	17
8	4798	519.864500215036	16
8	4813	522.381485518351	15
8	4818	522.498116670258	14
8	4825	524.390028088981	15
8	4827	525.282926496563	16
8	4867	530.071116988289	15
8	4872	530.176959252188	14
8	4884	530.429646187449	15
8	4886	533.830335654491	16
8	4888	535.266160056447	17
8	4893	538.498743067907	16
8	4898	538.762443929776	15
8	4903	538.801667112227	14
8	4907	539.013391379942	15
8	4912	539.468688740115	16
8	4914	540.372063835564	17
8	4954	546.615578059498	16
8	4963	547.077342036263	17
8	4973	548.00864927963	18
8	4993	554.574338267078	17
8	5010	559.05509513436	18
8	5012	560.186994973487	19
8	5022	567.730412865516	18
8	5044	576.242965370874	19
8	5074	580.249187480016	18
8	5091	580.981792106878	17
8	5109	581.943369620243	16
8	5113	581.991420037462	17
8	5126	583.318859522187	16
8	5163	586.459173055471	17
8	5165	586.688963305972	18
8	5194	593.618564053196	19
8	5219	597.722154146032	20
8	5286	620.952528464576	19
8	5294	621.320596782347	18
8	5304	622.015904789162	17
8	5309	622.037736637596	16
8	5313	622.131042961217	17
8	5316	622.171182297785	16
8	5320	622.249374809625	17
8	5342	622.911579656931	18
8	5345	622.951467981357	17
8	5372	624.228618184797	18
8	5377	624.808129374084	17
8	5387	625.124297258947	16
8	5401	625.220914926246	15
8	5417	625.730869421157	14
8	5429	626.620957326222	15
8	5436	627.853974464119	16
8	5438	627.88817965001	17
8	5445	629.800079616001	18
8	5465	633.354593317844	17
8	5482	638.210062721741	18
8	5547	646.406167778193	17
8	5559	646.664762279348	18
8	5561	650.234867011665	19
8	5576	651.706473973365	18
8	5618	656.081606437991	19
8	5622	658.433218569092	20
8	5650	662.652816203977	19
8	5655	662.696273103035	18
8	5672	667.326103244011	19
8	5697	669.854822950668	18
8	5704	670.061047748083	19
8	5719	671.616851028945	18
8	5731	672.130242308421	19
8	5733	672.877090309338	20
8	5775	686.113610421956	19
8	5823	688.459899653375	18
8	5833	688.597857010522	17
8	5845	689.028337933868	16
8	5858	689.212342449841	15
8	5870	692.073184012336	16
8	5877	692.606245600189	15
8	5897	693.230413095743	16
8	5899	693.45199929583	17
8	5909	694.564297023828	16
8	5946	701.873869839857	17
8	5953	705.434342215798	18
8	5958	705.758682067015	17
8	5965	705.886568567169	16
8	5988	706.40526735176	15
8	5995	707.821785019363	16
8	5999	708.799353567203	17
8	6009	709.984502938021	18
8	6021	712.712249343557	19
8	6045	713.997632786083	20
8	6083	721.300783339911	19
8	6133	724.704781305653	18
8	6175	730.96357620995	19
8	6187	734.635795920286	20
8	6257	755.012183726404	19
8	6269	761.700665405547	20
8	6344	779.4036861442	19
8	6354	780.778717746877	18
8	6364	782.719219822847	17
8	6371	783.169321545415	18
8	6378	784.760066403062	19
8	6380	785.589202584093	20
8	6417	795.527976733597	19
8	6430	800.62443925085	18
8	6437	800.864591568771	17
8	6467	802.032987615378	18
8	6477	802.560554381252	17
8	6484	802.739893991647	18
8	6499	803.140889082147	17
8	6514	804.069975941785	16
8	6529	805.270798469367	15
8	6551	806.906647326478	16
8	6576	808.158083720633	15
8	6586	808.425631689631	14
8	6591	808.529107612127	13
8	6621	809.787303812357	12
8	6633	811.209933519362	13
8	6638	811.66497616141	12
8	6645	812.595693249283	13
8	6647	813.275636750051	14
8	6654	814.253825227738	15
8	6666	814.821245767629	16
8	6718	819.840514775593	17
8	6720	820.349849466964	18
8	6727	821.227141011407	19
8	6734	824.468017451592	20
8	6756	830.485582146596	19
8	6763	830.535050109023	20
8	6766	830.581331553062	19
8	6781	831.508810610654	18
8	6828	841.032717277583	17
8	6838	844.799833286146	18
8	6874	847.618605264228	19
8	6892	849.519148025052	20
8	6927	856.697243006686	19
8	6947	857.349260472534	18
8	6994	865.984767236591	19
8	7031	872.264838728395	18
8	7079	874.547850647385	17
8	7089	874.867831374039	16
8	7096	875.312122682138	17
8	7128	882.289429172954	18
8	7143	883.170188460867	17
8	7150	883.346984492588	18
8	7157	883.891537193603	17
8	7162	883.989127412304	16
8	7205	886.521696401579	15
8	7209	886.678119232044	16
8	7222	887.910717757238	15
8	7244	891.906484899057	16
8	7246	894.701867286705	17
8	7266	896.61705310946	16
8	7278	897.556707151423	17
8	7283	898.160809278656	16
8	7303	899.521123279068	15
8	7325	901.09368620691	16
8	7345	906.253640233692	15
8	7349	906.279854642279	16
8	7359	907.056251980035	17
8	7361	908.28084557333	18
8	7363	908.922033172345	19
8	7365	910.242469693186	20
8	7410	916.47298819624	19
8	7427	916.867433489186	20
8	7447	922.665981812743	19
8	7452	922.680369151398	18
8	7464	933.842437148975	19
8	7491	945.479042645072	20
8	7511	956.182816595118	19
8	7516	956.396471848641	18
8	7553	961.430016498314	19
8	7558	961.727687661111	18
8	7605	970.24938592842	19
8	7610	971.515736988126	18
8	7615	971.559792243166	17
8	7625	971.959690866842	16
8	7637	972.91071245397	17
8	7644	973.357864140066	18
8	7649	974.099192844421	17
8	7659	975.988828902266	16
8	7676	976.771056587027	17
8	7693	979.250901132408	18
8	7708	980.29748729234	17
8	7725	981.397317085302	18
8	7789	988.222467319008	17
8	7815	988.880647695927	16
8	7870	993.179504553983	15
8	7877	993.358162846738	16
8	7884	995.263672250614	17
8	7886	996.346687597526	18
8	7893	996.620030788806	19
8	7913	1002.228511981584	18
8	7930	1003.592212356137	19
8	7945	1006.477291110014	18
8	7950	1006.497711158492	17
8	7982	1010.351537026209	18
8	8047	1025.177156659871	17
8	8077	1029.753712251696	16
8	8099	1030.248132424322	15
8	8107	1030.404162688084	14
8	8122	1031.148767862334	13
8	8132	1031.32126696055	12
8	8144	1031.620674303529	13
8	8146	1032.394531850157	14
8	8148	1032.939533105259	15
8	8155	1034.855890883478	16
8	8165	1036.645153714706	15
8	8172	1037.003177189027	16
8	8184	1037.640236298217	17
8	8194	1040.049969722114	16
8	8206	1042.352575041794	17
8	8208	1043.26064773126	18
8	8234	1046.611341174522	19
8	8260	1050.539272413925	18
8	8270	1050.72546780272	17
8	8297	1059.584207947746	18
8	8299	1060.249507726648	19
8	8301	1062.60138643214	20
8	8331	1079.197604051073	19
8	8336	1079.249890832294	18
8	8356	1081.252131033444	17
8	8378	1082.40875158076	18
8	8403	1087.347472845789	17
8	8418	1091.099415597606	16
8	8439	1091.592123992941	17
8	8450	1091.655026983124	16
8	8455	1091.661284202427	15
8	8462	1091.709454470856	16
8	8502	1098.551715611033	15
8	8509	1099.51459007132	16
8	8561	1103.698505795653	15
8	8601	1105.008434183772	16
8	8616	1105.753876615793	15
8	8628	1106.68824907271	16
8	8668	1113.230283993647	15
8	8682	1114.382482019287	16
8	8685	1114.475716564035	15
8	8705	1115.800713063725	14
8	8712	1116.558625807204	15
8	8714	1116.610706765319	16
8	8719	1116.691972254423	15
8	8726	1117.655674228734	16
8	8751	1122.334623054061	15
8	8773	1123.516922616414	14
8	8805	1125.098819231104	15
8	8815	1126.632367030505	16
8	8822	1130.529318685366	17
8	8824	1130.560224025074	18
8	8829	1131.927683460374	17
8	8854	1134.1078364569	16
8	8871	1137.014224735409	17
8	8891	1139.509039451156	16
8	8906	1141.09880668997	15
8	8913	1142.116651524725	16
8	8915	1143.089580825612	17
8	8934	1145.35609836897	18
8	8942	1146.080958346516	17
8	8957	1148.579768360743	16
8	8964	1148.84187214117	17
8	9001	1150.418098215777	18
8	9026	1151.621266639206	17
8	9033	1153.687768872422	18
8	9058	1156.910325339505	17
8	9068	1158.794560888012	16
8	9110	1162.315901819789	15
8	9143	1165.006298298374	14
8	9148	1165.307650669352	13
8	9155	1165.429649098355	14
8	9157	1166.136481051954	15
8	9159	1167.014442182248	16
8	9161	1167.451231432967	17
8	9163	1168.011623699325	18
8	9168	1168.232911666202	17
8	9175	1170.372673485799	18
8	9180	1171.374833797977	17
8	9205	1172.730392379453	16
8	9209	1172.874600932605	17
8	9227	1179.266320525016	16
8	9242	1180.691867744438	15
8	9247	1180.721543266462	14
8	9259	1181.112152164093	15
8	9269	1181.840227391703	14
8	9284	1182.289205828718	13
8	9291	1182.694184245492	14
8	9296	1182.774909051904	13
8	9301	1182.845039574521	12
8	9308	1183.474985580392	13
8	9320	1184.508505068517	14
8	9322	1184.56673206601	15
8	9329	1185.183063062636	14
8	9337	1185.36711464979	13
8	9344	1186.111156381879	14
8	9351	1186.941361756435	15
8	9358	1187.725718899279	14
8	9381	1188.65823687933	13
8	9403	1189.319198940222	12
8	9428	1192.46108992765	13
8	9430	1192.626364974447	14
8	9437	1193.598346866614	15
8	9439	1193.95191988447	16
8	9446	1194.744712789184	17
8	9448	1197.25776129728	18
8	9498	1202.469085258779	17
8	9523	1204.401536641951	16
8	9538	1204.623154514291	15
8	9555	1205.566374194421	16
8	9560	1205.775005329233	15
8	9572	1207.224437751416	16
8	9574	1207.780317860595	17
8	9601	1216.744666907152	18
8	9633	1224.316538054521	19
8	9645	1224.839538002897	20
8	9675	1230.170328454348	19
8	9685	1230.643101971577	18
8	9700	1231.474025895802	17
8	9709	1231.762918747216	18
8	9724	1232.869290767849	19
8	9734	1232.995646536103	18
8	9769	1236.832288383766	17
8	9774	1236.91848327083	16
8	9779	1237.026383548479	15
8	9796	1238.535470161444	16
8	9798	1238.773702638352	17
8	9800	1239.662070071041	18
8	9802	1245.331680732783	19
8	9817	1249.533552581326	18
8	9832	1249.97251662045	17
8	9844	1250.633697098675	18
8	9874	1253.707241322881	17
8	9914	1257.386578483843	16
8	9921	1259.167887545686	17
8	9923	1260.527520274291	18
8	9933	1261.966659803097	17
8	9965	1266.671557430631	18
8	9967	1270.045844147438	19
8	9972	1273.930734554922	18
8	9977	1274.041863912029	17
8	9984	1276.812711615645	18
8	9999	1279.95738993252	17
8	10013	1280.207967198517	18
8	10061	1295.540206085128	17
8	10078	1295.876361567247	16
8	10083	1295.885585402988	15
8	10088	1296.003032704193	14
8	10100	1296.143169490779	15
8	10110	1297.252358067438	16
8	10125	1299.878206372112	15
8	10152	1301.993918304381	16
8	10154	1303.084880186567	17
8	10156	1304.139820029594	18
8	10158	1305.442970443492	19
8	10163	1305.606132406366	18
8	10218	1312.623611507151	17
8	10233	1313.918334682402	16
8	10258	1314.498517912752	15
8	10270	1316.171094401208	16
8	10295	1320.002641217397	15
8	10299	1320.288748786844	16
8	10302	1320.308125022105	15
8	10306	1320.408078723058	16
8	10319	1320.807886423958	15
8	10323	1320.918552306768	16
8	10328	1321.128065158353	15
8	10348	1322.877560793981	16
8	10359	1323.390753031359	17
8	10364	1323.67574914919	18
8	10374	1324.339657174491	19
8	10396	1327.816607534446	18
8	10400	1327.957029393275	19
8	10416	1330.612106738346	18
8	10423	1331.642149365418	19
8	10443	1332.397301250738	18
8	10458	1333.073990466938	17
8	10473	1333.287544168379	16
8	10478	1333.288461965765	15
8	10485	1333.533464722925	16
8	10487	1333.766000351153	17
8	10502	1336.518352803294	16
8	10514	1336.726511470339	17
8	10524	1337.289744304991	16
8	10536	1337.634628297215	17
8	10543	1339.490654249496	18
8	10545	1342.636243630315	19
8	10550	1344.265006115519	18
8	10555	1344.320194241499	17
8	10562	1344.487217480591	18
8	10564	1346.135609878521	19
8	10596	1354.239300634029	20
8	10621	1360.300410685454	19
8	10643	1362.737632244556	18
8	10651	1362.771190730228	17
8	10681	1363.484083790927	16
8	10691	1363.819359575722	15
8	10696	1363.85100714296	14
8	10713	1364.625347006097	15
8	10723	1365.21223058118	14
8	10748	1368.654358235191	13
8	10760	1369.037517302653	14
8	10800	1371.550852225791	13
8	10810	1371.66592641446	12
8	10825	1372.442930312345	11
8	10832	1372.673944056717	12
8	10834	1372.987539758739	13
8	10849	1375.820657370033	12
8	10876	1377.883023316717	13
8	10883	1379.277313303998	14
8	10885	1379.422532221644	15
8	10890	1380.089294747239	14
8	10907	1380.954077130643	15
8	10909	1383.73433082342	16