version 2
run Multitask30-9-20150106-11:37:58-5476
attr configname Multitask30
attr datetime 20150106-11:37:58
attr experiment Multitask30
attr inifile omnetpp.ini
attr iterationvars ""
attr iterationvars2 $repetition=9
attr measurement ""
attr network Multitask
attr processid 5476
attr repetition 9
attr replication #9
attr resultdir results
attr runnumber 9
attr seedset 9

vector 8  Multitask.allocateQ2  queueLength:vector  ETV
attr interpolationmode  sample-hold
attr title  "queue length, vector"
vector 11  Multitask.queue3  queueLength:vector  ETV
attr interpolationmode  sample-hold
attr title  "queue length, vector"
vector 13  Multitask.queue3  busy:vector  ETV
attr interpolationmode  sample-hold
attr title  "server busy state, vector"
vector 15  Multitask.queue4  queueLength:vector  ETV
attr interpolationmode  sample-hold
attr title  "queue length, vector"
vector 17  Multitask.queue4  busy:vector  ETV
attr interpolationmode  sample-hold
attr title  "server busy state, vector"
vector 19  Multitask.queue5  queueLength:vector  ETV
attr interpolationmode  sample-hold
attr title  "queue length, vector"
vector 21  Multitask.queue5  busy:vector  ETV
attr interpolationmode  sample-hold
attr title  "server busy state, vector"
vector 23  Multitask.queue6  queueLength:vector  ETV
attr interpolationmode  sample-hold
attr title  "queue length, vector"
vector 25  Multitask.queue6  busy:vector  ETV
attr interpolationmode  sample-hold
attr title  "server busy state, vector"
vector 27  Multitask.queue7  queueLength:vector  ETV
attr interpolationmode  sample-hold
attr title  "queue length, vector"
vector 29  Multitask.queue7  busy:vector  ETV
attr interpolationmode  sample-hold
attr title  "server busy state, vector"
vector 30  Multitask.resourceCPU  amount:vector  ETV
attr interpolationmode  sample-hold
attr title  "available resource, vector"
vector 12  Multitask.queue3  queueingTime:vector  ETV
attr interpolationmode  none
attr title  "queueing time at dequeue, vector"
attr unit  s
vector 28  Multitask.queue7  queueingTime:vector  ETV
attr interpolationmode  none
attr title  "queueing time at dequeue, vector"
attr unit  s
vector 20  Multitask.queue5  queueingTime:vector  ETV
attr interpolationmode  none
attr title  "queueing time at dequeue, vector"
attr unit  s
vector 24  Multitask.queue6  queueingTime:vector  ETV
attr interpolationmode  none
attr title  "queueing time at dequeue, vector"
attr unit  s
vector 9  Multitask.allocateQ2  queueingTime:vector  ETV
attr interpolationmode  none
attr title  "queueing time at dequeue, vector"
attr unit  s
vector 16  Multitask.queue4  queueingTime:vector  ETV
attr interpolationmode  none
attr title  "queueing time at dequeue, vector"
attr unit  s
vector 0  Multitask.sink  lifeTime:vector  ETV
attr interpolationmode  none
attr title  "lifetime of arrived jobs, vector"
attr unit  s
vector 1  Multitask.sink  totalQueueingTime:vector  ETV
attr interpolationmode  none
attr title  "the total time spent in queues by arrived jobs, vector"
attr unit  s
vector 4  Multitask.sink  queuesVisited:vector  ETV
attr interpolationmode  none
attr title  "the total number of queues visited by arrived jobs, vector"
vector 3  Multitask.sink  totalServiceTime:vector  ETV
attr interpolationmode  none
attr title  "the total time spent  by arrived jobs, vector"
attr unit  s
vector 2  Multitask.sink  totalDelayTime:vector  ETV
attr interpolationmode  none
attr title  "the total time spent in delay nodes by arrived jobs, vector"
attr unit  s
vector 5  Multitask.sink  delaysVisited:vector  ETV
attr interpolationmode  none
attr title  "the total number of delays visited by arrived jobs, vector"
vector 6  Multitask.sink  generation:vector  ETV
attr interpolationmode  none
attr title  "the generation of the arrived jobs, vector"
0	13121	1470.862740881318	1470.8627408813
0	13137	1472.265564005906	1472.2655640059
0	13143	1472.387157126713	1472.3871571267
0	13159	1473.292674886002	1473.292674886
0	13185	1474.22686139844	1474.2268613984
0	13221	1476.651111143423	1476.6511111434
0	13227	1476.659444987231	1476.6594449872
0	13238	1476.9204354943	1476.9204354943
0	13273	1480.712363377867	1480.7123633779
0	13336	1488.268291627371	1488.2682916274
0	13342	1488.355857001323	1488.3558570013
0	13348	1488.433243428365	1488.4332434284
0	13371	1489.333960377949	1489.3339603779
0	13412	1498.074040452649	1498.0740404526
0	13438	1502.098411707325	1502.0984117073
0	13449	1506.953735080118	1506.9537350801
0	13470	1508.926460960252	1508.9264609603
0	13476	1508.975599700354	1508.9755997004
0	13487	1511.399253713679	1511.3992537137
0	13518	1519.111148667779	1519.1111486678
0	13533	1519.792491004757	1519.7924910048
0	13572	1527.179451523032	1527.179451523
0	13592	1527.976545849848	1527.9765458498
0	13599	1528.946069362778	1528.9460693628
0	13626	1532.195091854675	1532.1950918547
1	13121	1470.862740881318	1133.8690593939
1	13137	1472.265564005906	1136.6596578775
1	13143	1472.387157126713	1191.1187844967
1	13159	1473.292674886002	1207.0028852005
1	13185	1474.22686139844	1202.4156651496
1	13221	1476.651111143423	1185.1930899342
1	13227	1476.659444987231	1244.8207242317
1	13238	1476.9204354943	1193.455585679
1	13273	1480.712363377867	1215.9079152025
1	13336	1488.268291627371	1192.5927769353
1	13342	1488.355857001323	1181.6169537638
1	13348	1488.433243428365	1093.6371412159
1	13371	1489.333960377949	1182.8011799262
1	13412	1498.074040452649	1174.9561243083
1	13438	1502.098411707325	1221.4002798755
1	13449	1506.953735080118	1169.7513686353
1	13470	1508.926460960252	1192.6244451646
1	13476	1508.975599700354	1117.0369286122
1	13487	1511.399253713679	1220.6619395702
1	13518	1519.111148667779	1267.6134299322
1	13533	1519.792491004757	1181.680158706
1	13572	1527.179451523032	1250.7026536428
1	13592	1527.976545849848	1176.3816885316
1	13599	1528.946069362778	1192.4183849354
1	13626	1532.195091854675	1201.2094565225
2	13121	1470.862740881318	0
2	13137	1472.265564005906	0
2	13143	1472.387157126713	0
2	13159	1473.292674886002	0
2	13185	1474.22686139844	0
2	13221	1476.651111143423	0
2	13227	1476.659444987231	0
2	13238	1476.9204354943	0
2	13273	1480.712363377867	0
2	13336	1488.268291627371	0
2	13342	1488.355857001323	0
2	13348	1488.433243428365	0
2	13371	1489.333960377949	0
2	13412	1498.074040452649	0
2	13438	1502.098411707325	0
2	13449	1506.953735080118	0
2	13470	1508.926460960252	0
2	13476	1508.975599700354	0
2	13487	1511.399253713679	0
2	13518	1519.111148667779	0
2	13533	1519.792491004757	0
2	13572	1527.179451523032	0
2	13592	1527.976545849848	0
2	13599	1528.946069362778	0
2	13626	1532.195091854675	0
3	13121	1470.862740881318	120.70238963348
3	13137	1472.265564005906	119.68510229701
3	13143	1472.387157126713	110.54189629065
3	13159	1473.292674886002	82.721679578477
3	13185	1474.22686139844	112.92570847206
3	13221	1476.651111143423	109.76932195627
3	13227	1476.659444987231	98.69106539484
3	13238	1476.9204354943	110.99466684225
3	13273	1480.712363377867	89.963979230148
3	13336	1488.268291627371	127.50451855618
3	13342	1488.355857001323	132.86413465495
3	13348	1488.433243428365	140.43633179837
3	13371	1489.333960377949	66.349611686095
3	13412	1498.074040452649	175.66862673287
3	13438	1502.098411707325	89.308206571266
3	13449	1506.953735080118	108.9928475084
3	13470	1508.926460960252	113.4845937741
3	13476	1508.975599700354	150.20135755504
3	13487	1511.399253713679	136.32803651251
3	13518	1519.111148667779	126.81565343431
3	13533	1519.792491004757	107.65841492057
3	13572	1527.179451523032	137.23473366552
3	13592	1527.976545849848	118.74508722243
3	13599	1528.946069362778	76.73555983086
3	13626	1532.195091854675	152.54356036981
4	13121	1470.862740881318	41
4	13137	1472.265564005906	60
4	13143	1472.387157126713	55
4	13159	1473.292674886002	52
4	13185	1474.22686139844	49
4	13221	1476.651111143423	57
4	13227	1476.659444987231	36
4	13238	1476.9204354943	42
4	13273	1480.712363377867	49
4	13336	1488.268291627371	49
4	13342	1488.355857001323	49
4	13348	1488.433243428365	53
4	13371	1489.333960377949	33
4	13412	1498.074040452649	69
4	13438	1502.098411707325	46
4	13449	1506.953735080118	42
4	13470	1508.926460960252	55
4	13476	1508.975599700354	75
4	13487	1511.399253713679	56
4	13518	1519.111148667779	59
4	13533	1519.792491004757	41
4	13572	1527.179451523032	61
4	13592	1527.976545849848	37
4	13599	1528.946069362778	30
4	13626	1532.195091854675	46
5	13121	1470.862740881318	0
5	13137	1472.265564005906	0
5	13143	1472.387157126713	0
5	13159	1473.292674886002	0
5	13185	1474.22686139844	0
5	13221	1476.651111143423	0
5	13227	1476.659444987231	0
5	13238	1476.9204354943	0
5	13273	1480.712363377867	0
5	13336	1488.268291627371	0
5	13342	1488.355857001323	0
5	13348	1488.433243428365	0
5	13371	1489.333960377949	0
5	13412	1498.074040452649	0
5	13438	1502.098411707325	0
5	13449	1506.953735080118	0
5	13470	1508.926460960252	0
5	13476	1508.975599700354	0
5	13487	1511.399253713679	0
5	13518	1519.111148667779	0
5	13533	1519.792491004757	0
5	13572	1527.179451523032	0
5	13592	1527.976545849848	0
5	13599	1528.946069362778	0
5	13626	1532.195091854675	0
6	13121	1470.862740881318	0
6	13137	1472.265564005906	0
6	13143	1472.387157126713	0
6	13159	1473.292674886002	0
6	13185	1474.22686139844	0
6	13221	1476.651111143423	0
6	13227	1476.659444987231	0
6	13238	1476.9204354943	0
6	13273	1480.712363377867	0
6	13336	1488.268291627371	0
6	13342	1488.355857001323	0
6	13348	1488.433243428365	0
6	13371	1489.333960377949	0
6	13412	1498.074040452649	0
6	13438	1502.098411707325	0
6	13449	1506.953735080118	0
6	13470	1508.926460960252	0
6	13476	1508.975599700354	0
6	13487	1511.399253713679	0
6	13518	1519.111148667779	0
6	13533	1519.792491004757	0
6	13572	1527.179451523032	0
6	13592	1527.976545849848	0
6	13599	1528.946069362778	0
6	13626	1532.195091854675	0
8	0	0	0
8	91	1.492117234089	1
8	93	1.532806658577	2
8	104	1.824531865754	3
8	106	2.466152109059	4
8	108	2.851535032249	5
8	115	3.793718192754	6
8	117	3.801253565828	7
8	119	4.238816197632	8
8	121	4.53281862388	9
8	125	4.68326925041	10
8	133	4.788774767531	9
8	138	4.797038607994	8
8	142	5.039921128074	9
8	147	5.421583841168	10
8	159	6.825129531784	11
8	161	6.847293068844	12
8	163	6.914094226793	13
8	165	6.969034172218	14
8	167	11.326351568913	15
8	169	11.549711831274	16
8	171	12.151090298783	17
8	183	15.577073984698	16
8	193	15.900627482822	15
8	223	20.97370989888	16
8	228	21.034934428636	15
8	232	21.083274122219	16
8	235	21.468405840695	15
8	250	21.789562508227	14
8	255	21.81695464886	13
8	260	21.834700713824	12
8	272	23.190699705234	13
8	274	23.333076915047	14
8	299	24.721157170392	13
8	313	25.33051071894	14
8	323	26.18750701549	15
8	325	27.176040496191	16
8	337	29.776743033022	17
8	339	30.152011565684	18
8	346	31.451113559099	19
8	361	32.295395476424	18
8	366	32.3208643951	17
8	411	37.610289602819	16
8	415	37.614985647794	17
8	418	37.640707776617	16
8	428	37.938324972249	15
8	433	38.168883508454	14
8	445	39.132278375483	15
8	457	40.432176224936	16
8	476	41.864229988635	17
8	531	51.315999766748	18
8	543	52.258783812054	17
8	563	54.29232987653	18
8	570	62.55309925903	19
8	587	64.869475698976	20
8	642	69.155345784972	19
8	657	69.684218142691	18
8	694	75.635136799484	19
8	704	76.163623229569	18
8	724	78.648097646954	17
8	729	78.706714333591	16
8	758	82.859693593223	17
8	760	82.97867452213	18
8	763	82.9867973341	17
8	773	83.544243105057	16
8	788	84.939431376165	15
8	795	85.030191627903	16
8	807	85.665415338484	15
8	811	85.778005302778	16
8	822	86.303477181714	15
8	827	86.321310313757	14
8	839	86.636191181165	15
8	841	86.815216901093	16
8	843	87.687889253152	17
8	862	89.766503322093	18
8	897	91.674970087871	17
8	902	91.825079037169	16
8	907	91.847957602923	15
8	912	91.879783252835	14
8	927	92.219983942239	15
8	932	92.472510194626	14
8	942	92.87749056858	13
8	947	93.216209712698	12
8	954	94.900814607638	13
8	956	95.134855272306	14
8	958	97.732674324823	15
8	980	98.579000389796	14
8	993	98.808757144511	13
8	1015	99.73880674558	12
8	1020	99.81877620673	11
8	1033	99.987090632589	10
8	1040	100.840480558521	11
8	1047	102.449144230066	12
8	1054	106.837368049887	13
8	1069	108.3341725894	12
8	1084	108.724589412214	11
8	1104	109.369215733248	10
8	1111	109.857443808938	11
8	1125	110.312783016098	12
8	1135	110.847041273376	13
8	1140	110.894631103815	12
8	1152	111.220184315742	13
8	1162	113.770129811502	12
8	1179	116.1212952928	13
8	1181	116.908600355607	14
8	1183	117.430162316454	15
8	1203	118.966920970877	14
8	1218	121.130217565229	13
8	1243	121.723400729074	12
8	1250	121.800370450966	13
8	1270	123.805523058635	12
8	1280	124.03669860512	11
8	1284	124.190640356113	12
8	1287	124.267557369902	11
8	1294	124.508538502874	10
8	1312	125.183375858934	9
8	1329	126.181997822794	10
8	1331	126.456953461453	11
8	1333	126.865829709785	12
8	1335	127.24179701918	13
8	1337	127.80156243239	14
8	1339	128.132777985591	15
8	1341	128.572930959365	16
8	1343	129.492173547406	17
8	1393	133.384268964316	16
8	1403	133.606095466487	15
8	1438	136.197631040609	14
8	1448	136.42123197056	13
8	1455	136.947465462493	14
8	1462	140.506623611552	15
8	1467	141.27988140229	14
8	1471	141.357127185563	15
8	1481	142.328115221666	16
8	1483	142.427749795712	17
8	1520	146.864427316183	18
8	1525	146.942253754239	17
8	1532	149.969764342311	18
8	1547	152.093597995109	17
8	1602	156.121740129913	16
8	1629	162.720090037966	17
8	1634	163.087246294645	16
8	1656	164.640127626398	17
8	1665	170.552655245276	18
8	1673	170.921198762726	17
8	1693	172.235167305491	16
8	1710	172.796553991755	17
8	1712	174.77088696078	18
8	1742	177.318390580803	17
8	1762	177.935850027976	16
8	1774	178.707343429903	17
8	1776	179.040676348926	18
8	1778	179.914298437968	19
8	1795	181.026861768284	18
8	1805	181.291863708556	19
8	1815	182.013001273986	18
8	1820	182.055879143873	17
8	1825	182.138829333495	16
8	1832	182.642569402527	17
8	1852	188.408356330974	16
8	1878	189.223877875993	17
8	1880	189.273873342454	18
8	1903	189.926320824829	17
8	1915	190.291383206783	18
8	1925	190.577847689605	17
8	1929	190.662270833223	18
8	1947	191.104617719377	17
8	1964	191.492641180921	16
8	1972	191.89255180501	15
8	1990	194.145342465128	14
8	1995	194.288159524336	13
8	2002	194.438681849263	12
8	2012	194.590610781729	13
8	2014	194.632563815764	14
8	2016	194.947227915887	15
8	2018	195.784254036996	16
8	2033	196.967132118118	15
8	2040	197.691738607393	16
8	2070	198.920799980796	15
8	2079	199.114930775112	16
8	2112	201.61973227035	15
8	2129	202.484925411223	16
8	2159	203.80580191717	15
8	2166	204.511998787121	16
8	2170	204.69213575141	17
8	2177	206.159632598104	18
8	2215	207.712345383716	17
8	2250	209.724638893714	16
8	2255	209.778324564941	15
8	2261	209.839467562698	16
8	2301	210.921909772039	15
8	2312	211.434165513701	14
8	2316	211.548774479054	15
8	2321	212.021538073369	14
8	2325	212.05423465067	15
8	2335	212.761944751123	16
8	2345	214.254480185915	17
8	2352	215.202424116708	18
8	2364	216.0879058402	19
8	2376	217.930461989081	20
8	2381	218.465367162097	19
8	2413	222.356589177131	20
8	2418	222.617245851092	19
8	2438	224.056046702278	18
8	2443	224.11128060392	17
8	2448	224.204330156316	16
8	2453	224.247111385488	15
8	2475	225.718264522795	16
8	2482	226.469698728324	17
8	2504	231.798718597402	18
8	2511	232.182032713649	19
8	2513	233.441092980158	20
8	2523	233.795878821446	19
8	2528	233.80590140742	18
8	2545	239.592159470323	19
8	2575	241.908564612573	18
8	2587	242.207103980623	17
8	2600	242.659628741921	16
8	2625	243.093313805303	15
8	2632	243.271738755458	16
8	2634	243.298996520045	17
8	2644	243.942598769984	16
8	2711	247.621269271808	17
8	2713	247.791021585606	18
8	2748	250.894757896878	17
8	2755	251.893791809104	18
8	2757	252.217737227295	19
8	2822	255.87482659685	18
8	2827	255.966212966582	17
8	2842	257.916677453041	16
8	2852	259.049391607341	15
8	2877	260.925356384068	14
8	2887	261.59822326413	13
8	2897	263.908994304564	12
8	2912	264.297887423879	11
8	2926	264.888825044531	12
8	2941	265.489877433823	13
8	2968	267.200849537392	14
8	2983	268.424614717822	13
8	2990	268.534305926787	14
8	2992	269.216892712192	15
8	2994	269.684514860706	16
8	3006	271.594616481361	17
8	3018	272.004430381763	16
8	3071	273.744205899132	15
8	3081	274.024646930983	14
8	3085	274.65994693183	15
8	3093	274.789521134893	14
8	3100	275.098636454462	15
8	3122	276.570006146921	16
8	3132	279.753836586241	15
8	3154	283.459821082742	16
8	3156	284.50486132593	17
8	3158	284.741793606086	18
8	3168	286.122398710415	17
8	3172	286.223536480882	18
8	3182	286.840144793395	19
8	3219	294.867439645326	20
8	3229	300.876152835761	19
8	3234	300.991855990535	18
8	3259	314.637450954101	17
8	3279	318.65554640774	16
8	3289	318.821768551734	15
8	3306	321.466693929378	16
8	3326	323.831887116285	15
8	3338	325.782450743061	16
8	3340	326.725313446579	17
8	3352	331.680210733364	18
8	3362	334.392459406011	17
8	3367	334.530794550733	16
8	3376	334.692584629303	17
8	3391	336.593449792851	18
8	3393	338.027235059052	19
8	3408	344.010121452952	18
8	3413	344.425006086846	17
8	3425	344.668995855207	18
8	3435	346.081499791444	17
8	3440	346.173799987352	16
8	3445	346.258509634753	15
8	3475	353.094974864398	14
8	3492	356.85119486024	15
8	3499	357.526051294403	16
8	3514	358.190692033113	15
8	3529	358.532106085875	14
8	3534	358.542620612608	13
8	3541	359.39885475866	14
8	3548	365.330203750435	15
8	3550	365.388596842617	16
8	3552	366.20632623962	17
8	3564	367.157668743526	18
8	3574	370.207749718049	17
8	3606	371.859098411474	18
8	3618	372.494415888095	17
8	3623	372.6374193212	16
8	3658	376.985532269164	17
8	3660	379.263142415501	18
8	3672	382.333966137826	19
8	3674	383.471102553564	20
8	3719	394.840789738395	19
8	3729	397.123485087682	18
8	3734	397.300979527217	17
8	3764	398.365220085384	16
8	3784	398.749151717228	15
8	3814	400.432129192759	14
8	3826	401.157587182717	15
8	3831	402.037783408391	14
8	3836	402.078780765609	13
8	3843	402.511800769683	14
8	3850	404.756939750473	15
8	3860	406.078336052516	14
8	3865	406.101579588074	13
8	3887	407.943306101909	14
8	3894	408.355886472597	15
8	3901	409.124533986403	16
8	3906	409.329949162744	15
8	3910	409.518813242982	16
8	3918	409.784805856476	15
8	3925	411.138678510926	16
8	3935	413.392691831395	15
8	3947	414.22294810965	16
8	3979	416.560554145579	15
8	3989	416.662967607953	16
8	4001	419.359870562632	17
8	4003	420.768464635185	18
8	4018	422.881485412523	17
8	4038	423.652866464441	16
8	4060	424.195905443873	17
8	4087	427.3300036925	16
8	4091	427.393981485111	17
8	4093	427.418563473958	18
8	4096	427.419139839503	17
8	4101	427.48918637838	16
8	4111	428.381047127362	17
8	4128	433.176303032293	18
8	4175	441.463298401793	19
8	4180	441.675176829803	18
8	4190	441.752270847905	17
8	4217	443.360499688144	16
8	4234	446.954779131982	17
8	4257	450.631765678378	16
8	4269	451.816960461934	17
8	4279	457.791206922327	16
8	4296	459.808745033149	17
8	4301	459.967063091386	16
8	4308	460.156794453161	17
8	4310	460.651808444007	18
8	4330	462.049375786317	17
8	4339	463.853291000385	18
8	4347	464.410933930583	17
8	4374	467.685226680793	18
8	4384	469.003726870978	17
8	4391	469.406267285219	18
8	4421	471.069874284668	17
8	4433	471.276402734874	18
8	4438	471.348879176791	17
8	4445	471.551062340562	18
8	4455	472.310457715215	17
8	4480	473.97448320598	16
8	4494	474.438348939806	17
8	4497	474.534882253022	16
8	4507	475.072808701239	15
8	4522	476.219519522162	14
8	4529	476.662591519734	15
8	4531	476.776623126016	16
8	4578	481.998993615317	17
8	4580	482.829435943461	18
8	4587	486.404972403525	19
8	4607	491.021515414409	18
8	4612	491.063340677036	17
8	4619	491.231146073898	18
8	4639	495.71169742715	17
8	4659	496.117202274031	16
8	4669	496.506805430361	15
8	4681	497.741462089736	16
8	4683	499.393352624636	17
8	4695	503.503027505371	18
8	4712	504.506342810754	17
8	4720	504.748449484746	16
8	4737	505.43547465914	17
8	4739	505.977487726193	18
8	4749	507.007149515427	17
8	4758	507.382350621823	16
8	4799	512.430627172015	15
8	4834	517.621038222411	14
8	4846	517.898267706992	13
8	4850	517.970669671346	14
8	4853	517.978916879611	13
8	4858	518.043031332659	12
8	4863	518.063809605024	11
8	4885	519.07849071865	12
8	4895	519.640988620181	13
8	4897	520.733831628103	14
8	4902	521.067874477155	13
8	4914	523.024514467411	14
8	4934	523.742286760346	13
8	4938	523.826437084887	14
8	4943	524.271253074189	15
8	4945	525.744820641155	16
8	4967	528.104410834765	17
8	4989	529.169200650164	18
8	4991	529.458683779376	19
8	5013	531.763422277091	18
8	5033	532.280342726456	17
8	5038	532.435320223591	16
8	5061	534.026663429591	15
8	5065	534.044912085546	16
8	5069	534.073543416386	17
8	5075	534.190391509269	16
8	5082	534.310105321542	17
8	5094	536.67845179824	18
8	5106	538.690414618881	17
8	5121	539.673796442106	18
8	5133	550.639763649928	19
8	5153	553.994627779463	18
8	5158	553.994991493716	17
8	5163	554.123741445214	16
8	5170	555.495275222001	17
8	5192	559.383005437547	18
8	5194	559.702664201558	19
8	5196	562.030082688984	20
8	5206	563.736238851023	19
8	5293	574.21628330982	20
8	5335	578.964643534466	19
8	5340	578.982503283615	18
8	5358	579.5841758146	17
8	5390	582.416783293981	18
8	5425	584.306614362529	17
8	5470	589.588939478745	16
8	5515	592.090888685681	15
8	5537	594.696110899312	16
8	5539	594.885902835604	17
8	5541	596.451788337227	18
8	5551	596.987721856125	17
8	5565	598.012008054778	18
8	5570	599.965014714144	19
8	5577	606.003679401277	20
8	5592	609.164889072594	19
8	5629	617.647246433233	20
8	5644	619.562913408686	19
8	5674	622.80062910061	18
8	5679	622.855509077899	17
8	5699	623.679684288187	16
8	5704	623.708315436288	15
8	5709	623.711948150682	14
8	5741	626.878880588785	15
8	5781	630.854185323499	14
8	5863	633.993266553384	13
8	5873	634.596447173458	14
8	5883	635.119496493138	13
8	5888	635.136835261004	12
8	5903	635.296836070905	11
8	5913	635.702893526143	10
8	5918	635.753295698983	9
8	5925	635.850923970653	10
8	5937	636.354698244874	11
8	5944	640.619742755192	12
8	5946	641.305236779927	13
8	5961	643.144652006165	12
8	5966	643.229709064692	11
8	5978	643.495358967348	12
8	5982	644.161835609033	13
8	5990	644.367726966912	12
8	5997	645.038684556518	13
8	6004	645.968423066916	14
8	6011	647.015586539317	15
8	6023	648.49886832121	16
8	6035	649.998866049827	17
8	6074	651.097048497689	16
8	6105	654.673849941999	15
8	6125	655.553590938647	14
8	6140	655.676723290608	13
8	6145	656.008980827843	12
8	6177	656.971864313273	13
8	6187	657.109620069711	12
8	6199	657.503762225784	11
8	6209	657.547857882702	10
8	6237	658.259614543232	9
8	6249	658.894554801117	10
8	6251	659.508427260482	11
8	6253	659.862824691908	12
8	6255	661.094184941328	13
8	6257	661.238566699984	14
8	6262	662.138917407724	13
8	6274	663.245896902735	14
8	6276	663.504691768705	15
8	6288	665.215986121195	16
8	6290	665.555558154401	17
8	6292	666.380246297699	18
8	6309	672.021184973519	19
8	6331	678.481019733214	20
8	6346	681.79712992805	19
8	6376	683.301201398903	18
8	6396	687.023812651186	17
8	6406	687.534346651611	16
8	6413	688.58557897943	17
8	6418	689.20602846084	16
8	6430	689.579381957619	15
8	6443	689.908793109348	14
8	6455	691.696083506279	15
8	6475	694.062612048315	14
8	6489	694.557515828029	13
8	6526	697.011929345458	14
8	6529	697.163154410671	13
8	6534	697.461222175046	12
8	6539	697.483812285494	11
8	6546	697.758500536139	10
8	6579	699.108497656558	11
8	6591	700.509741175912	10
8	6608	701.442274209818	11
8	6616	701.783718422782	10
8	6621	701.791822979609	9
8	6636	703.477324710002	8
8	6643	704.950371644059	9
8	6645	706.787646696142	10
8	6647	707.333328054672	11
8	6651	709.207321293576	12
8	6656	709.256485631768	13
8	6658	709.78326373668	14
8	6660	709.920134633928	15
8	6679	715.351527415919	16
8	6694	717.363950157146	15
8	6719	720.260908951492	16
8	6724	721.226864484708	15
8	6741	721.694350157814	14
8	6748	721.92149178604	15
8	6771	725.485442723596	14
8	6786	726.161908134985	13
8	6803	726.433062164613	14
8	6828	727.75241246373	13
8	6835	728.198603971122	14
8	6862	730.645371825539	15
8	6864	731.600642185474	16
8	6869	731.855915649238	15
8	6891	734.57949064014	16
8	6903	735.358760293951	17
8	6918	739.834255812031	16
8	6957	743.294422131442	17
8	6960	743.388775660515	16
8	6965	743.425443699906	15
8	7017	747.424071348881	16
8	7029	750.593394245902	17
8	7048	751.84730759841	18
8	7053	752.024666667764	19
8	7103	754.070065963752	18
8	7120	754.523486824437	17
8	7138	755.474208721881	16
8	7152	755.998268326535	17
8	7179	757.039559860243	18
8	7192	758.189712026487	17
8	7207	758.983565730284	16
8	7214	759.170505936953	17
8	7219	759.924075906965	16
8	7224	760.029722508755	15
8	7259	763.19519372675	14
8	7278	765.260077757103	15
8	7288	765.750645969945	14
8	7298	765.874871433778	13
8	7313	766.934105842245	14
8	7320	767.642372876253	15
8	7329	768.252862991721	16
8	7339	768.416347717621	17
8	7349	771.393624948362	16
8	7355	771.554113045856	17
8	7363	771.894151356529	18
8	7383	773.563367897878	17
8	7388	773.615445900181	16
8	7400	774.190922668287	17
8	7402	775.467709784993	18
8	7407	775.771731795402	17
8	7412	775.958810634272	16
8	7424	776.246516030854	17
8	7436	777.249353288478	18
8	7440	777.430973868552	19
8	7488	779.637464282845	18
8	7493	779.677985396315	17
8	7504	780.355942235434	18
8	7506	780.361162525064	19
8	7509	780.369438594372	18
8	7544	783.091945683343	19
8	7564	789.74377584613	18
8	7574	789.975577708974	17
8	7599	792.29877322832	16
8	7608	792.962227119965	17
8	7611	793.02922722392	16
8	7621	793.477159426669	15
8	7625	793.490525744862	16
8	7630	793.680061391453	17
8	7632	796.673818779025	18
8	7642	799.296556940542	17
8	7649	799.958843085178	18
8	7651	801.116980915741	19
8	7671	802.315190276881	18
8	7676	802.372886503198	17
8	7680	802.494717231925	18
8	7700	808.7291537852	19
8	7712	811.257275887981	20
8	7791	824.613705383752	19
8	7799	824.796405174464	18
8	7804	824.934709406793	17
8	7808	824.998151077894	18
8	7864	828.502715494758	17
8	7869	828.5762677581	16
8	7886	831.934153326798	17
8	7891	833.069445571681	16
8	7930	835.521459993038	17
8	7938	836.376499168838	16
8	7943	836.391718951164	15
8	7970	839.316941713303	16
8	7979	842.808585582728	17
8	7994	843.759215207413	18
8	8011	845.474597116366	19
8	8016	846.894443610986	18
8	8065	856.833054375127	19
8	8070	856.91696308265	20
8	8100	858.993159872399	19
8	8115	859.587299288464	18
8	8127	862.103118789295	19
8	8132	862.304586611301	18
8	8142	862.454712069568	17
8	8162	864.151811650852	16
8	8199	866.903465918417	17
8	8211	871.031527225743	18
8	8218	874.522093250062	19
8	8225	875.066176323787	20
8	8235	882.485061208091	19
8	8240	882.631970492365	18
8	8254	883.670091244364	19
8	8274	885.037381070099	20
8	8304	888.937733715689	19
8	8331	893.942532967609	18
8	8344	895.924223637597	17
8	8349	896.017532854003	16
8	8359	897.33798930074	15
8	8369	897.950743826878	14
8	8376	898.843566452986	15
8	8378	901.02115818772	16
8	8380	904.411210028653	17
8	8402	911.268331646238	18
8	8407	916.340364143891	17
8	8427	918.188778663167	16
8	8431	918.282555692677	17
8	8454	919.751635808821	16
8	8494	922.00707794856	15
8	8509	922.247284650524	14
8	8524	922.35469960095	13
8	8543	923.027406714891	14
8	8550	923.733002002472	15
8	8565	924.674121955636	16
8	8579	926.762962659311	17
8	8582	926.896930280698	16
8	8594	928.312016168818	17
8	8596	928.899165481838	18
8	8618	931.146877921979	19
8	8623	931.879310839595	18
8	8628	931.913094790975	17
8	8668	938.330442973328	16
8	8682	938.773664279296	15
8	8697	939.302122060546	14
8	8707	939.463552802007	13
8	8720	939.763813300497	12
8	8727	939.87678369371	13
8	8730	939.907633290487	12
8	8747	941.390822271161	13
8	8754	941.838161800816	14
8	8759	942.657706850861	13
8	8781	944.118165711707	14
8	8793	945.405379235103	15
8	8800	947.825223294582	16
8	8804	948.207773169333	17
8	8807	948.212486182981	16
8	8829	953.179627880235	17
8	8841	954.219170166868	18
8	8846	954.388943426152	17
8	8866	957.504719732086	16
8	8876	957.762669477387	15
8	8883	958.273038125061	16
8	8893	959.98209208301	15
8	8918	961.263608925421	14
8	8925	961.998851686523	15
8	8955	964.557961210024	14
8	8962	965.201130123721	15
8	8974	967.405123620262	16
8	8979	968.316485179978	15
8	8994	969.210410914249	14
8	9016	970.125253069333	13
8	9026	971.48199834941	14
8	9028	972.251619750881	15
8	9035	973.099274764631	16
8	9050	974.192084372204	15
8	9057	974.757204605973	16
8	9067	975.765951651689	15
8	9079	975.907896820172	16
8	9091	976.560125696448	17
8	9098	976.886646374566	18
8	9108	983.962355920626	17
8	9123	984.318319736121	16
8	9140	984.731029448417	17
8	9147	986.684369647368	18
8	9154	994.56989693617	19
8	9164	995.525446770457	18
8	9169	995.727026077477	17
8	9176	996.151539926316	18
8	9181	999.269733616465	17
8	9191	999.732174183806	16
8	9208	1001.89850950954	17
8	9210	1001.907200565709	18
8	9290	1011.085691659837	17
8	9332	1016.920084601927	18
8	9334	1017.387218871023	19
8	9336	1017.447467959453	20
8	9351	1019.956507845329	19
8	9368	1024.199683609297	20
8	9413	1027.914248216044	19
8	9423	1028.083595834103	18
8	9457	1029.280808172528	19
8	9484	1035.011114682029	20
8	9492	1035.063146074381	19
8	9502	1036.672695130008	18
8	9517	1037.069275811888	17
8	9559	1039.629785892692	18
8	9564	1039.879049889064	17
8	9581	1043.156047547091	18
8	9583	1044.504158957997	19
8	9590	1046.324147345256	20
8	9620	1047.789199645402	19
8	9639	1048.586352306108	20
8	9787	1068.036621577648	19
8	9792	1068.053508267163	18
8	9807	1070.783854042392	17
8	9827	1073.44437694723	16
8	9834	1073.777840284708	17
8	9851	1077.173122014459	18
8	9866	1079.15865256668	17
8	9871	1079.357760134007	16
8	9878	1081.072678494665	17
8	9903	1082.165721124223	16
8	9915	1085.417094027348	17
8	9945	1086.778110468989	16
8	9949	1086.85510176288	17
8	9952	1087.198749764193	16
8	9997	1092.187469752512	15
8	10004	1092.229015125441	14
8	10008	1092.276343147246	15
8	10019	1093.48746520054	14
8	10041	1094.87575904111	15
8	10043	1095.581320100279	16
8	10053	1097.937258094452	15
8	10060	1098.076301593359	16
8	10067	1098.755704933225	17
8	10069	1101.373373731256	18
8	10071	1102.818472538505	19
8	10226	1116.819033228636	18
8	10238	1117.727846135479	19
8	10250	1127.662405524723	20
8	10255	1132.954383286944	19
8	10300	1136.295946005726	18
8	10322	1137.630201316498	19
8	10337	1139.407390368536	18
8	10344	1142.640928320152	19
8	10416	1157.514520349339	20