version 2
run Multitask30-25-20150106-11:38:00-2828
attr configname Multitask30
attr datetime 20150106-11:38:00
attr experiment Multitask30
attr inifile omnetpp.ini
attr iterationvars ""
attr iterationvars2 $repetition=25
attr measurement ""
attr network Multitask
attr processid 2828
attr repetition 25
attr replication #25
attr resultdir results
attr runnumber 25
attr seedset 25

vector 8  Multitask.allocateQ2  queueLength:vector  ETV
attr interpolationmode  sample-hold
attr title  "queue length, vector"
vector 11  Multitask.queue3  queueLength:vector  ETV
attr interpolationmode  sample-hold
attr title  "queue length, vector"
vector 13  Multitask.queue3  busy:vector  ETV
attr interpolationmode  sample-hold
attr title  "server busy state, vector"
vector 15  Multitask.queue4  queueLength:vector  ETV
attr interpolationmode  sample-hold
attr title  "queue length, vector"
vector 17  Multitask.queue4  busy:vector  ETV
attr interpolationmode  sample-hold
attr title  "server busy state, vector"
vector 19  Multitask.queue5  queueLength:vector  ETV
attr interpolationmode  sample-hold
attr title  "queue length, vector"
vector 21  Multitask.queue5  busy:vector  ETV
attr interpolationmode  sample-hold
attr title  "server busy state, vector"
vector 23  Multitask.queue6  queueLength:vector  ETV
attr interpolationmode  sample-hold
attr title  "queue length, vector"
vector 25  Multitask.queue6  busy:vector  ETV
attr interpolationmode  sample-hold
attr title  "server busy state, vector"
vector 27  Multitask.queue7  queueLength:vector  ETV
attr interpolationmode  sample-hold
attr title  "queue length, vector"
vector 29  Multitask.queue7  busy:vector  ETV
attr interpolationmode  sample-hold
attr title  "server busy state, vector"
vector 30  Multitask.resourceCPU  amount:vector  ETV
attr interpolationmode  sample-hold
attr title  "available resource, vector"
vector 12  Multitask.queue3  queueingTime:vector  ETV
attr interpolationmode  none
attr title  "queueing time at dequeue, vector"
attr unit  s
vector 20  Multitask.queue5  queueingTime:vector  ETV
attr interpolationmode  none
attr title  "queueing time at dequeue, vector"
attr unit  s
vector 24  Multitask.queue6  queueingTime:vector  ETV
attr interpolationmode  none
attr title  "queueing time at dequeue, vector"
attr unit  s
vector 16  Multitask.queue4  queueingTime:vector  ETV
attr interpolationmode  none
attr title  "queueing time at dequeue, vector"
attr unit  s
vector 28  Multitask.queue7  queueingTime:vector  ETV
attr interpolationmode  none
attr title  "queueing time at dequeue, vector"
attr unit  s
vector 9  Multitask.allocateQ2  queueingTime:vector  ETV
attr interpolationmode  none
attr title  "queueing time at dequeue, vector"
attr unit  s
vector 0  Multitask.sink  lifeTime:vector  ETV
attr interpolationmode  none
attr title  "lifetime of arrived jobs, vector"
attr unit  s
vector 1  Multitask.sink  totalQueueingTime:vector  ETV
attr interpolationmode  none
attr title  "the total time spent in queues by arrived jobs, vector"
attr unit  s
vector 4  Multitask.sink  queuesVisited:vector  ETV
attr interpolationmode  none
attr title  "the total number of queues visited by arrived jobs, vector"
vector 3  Multitask.sink  totalServiceTime:vector  ETV
attr interpolationmode  none
attr title  "the total time spent  by arrived jobs, vector"
attr unit  s
vector 2  Multitask.sink  totalDelayTime:vector  ETV
attr interpolationmode  none
attr title  "the total time spent in delay nodes by arrived jobs, vector"
attr unit  s
vector 5  Multitask.sink  delaysVisited:vector  ETV
attr interpolationmode  none
attr title  "the total number of delays visited by arrived jobs, vector"
vector 6  Multitask.sink  generation:vector  ETV
attr interpolationmode  none
attr title  "the generation of the arrived jobs, vector"
0	13596	1743.444035614203	1743.4440356142
0	13624	1744.401492447854	1744.4014924479
0	13630	1744.467517526572	1744.4675175266
0	13685	1749.468457535412	1749.4684575354
0	13701	1750.778103925526	1750.7781039255
0	13707	1750.789741845996	1750.789741846
0	13713	1750.807546725977	1750.807546726
0	13729	1752.617748216487	1752.6177482165
0	13751	1757.940093596914	1757.9400935969
0	13777	1762.416740931852	1762.4167409319
0	13795	1765.336489671219	1765.3364896712
0	13803	1765.393657410284	1765.3936574103
0	13812	1765.548644929975	1765.54864493
0	13818	1765.565035349454	1765.5650353495
0	13856	1768.200429580103	1768.2004295801
0	13862	1768.239279109695	1768.2392791097
0	13885	1773.056176771236	1773.0561767712
0	13891	1773.063707893986	1773.063707894
0	13907	1774.221222893493	1774.2212228935
0	13933	1778.776655620118	1778.7766556201
0	13948	1779.812077153795	1779.8120771538
0	13965	1781.385428529765	1781.3854285298
0	13977	1782.119422974239	1782.1194229742
0	13984	1785.423230731281	1785.4232307313
0	14016	1794.568877830689	1794.5688778307
1	13596	1743.444035614203	1493.679760167
1	13624	1744.401492447854	1404.4017485289
1	13630	1744.467517526572	1521.0722078524
1	13685	1749.468457535412	1384.8731277679
1	13701	1750.778103925526	1473.5126099922
1	13707	1750.789741845996	1423.0871973512
1	13713	1750.807546725977	1472.6504828104
1	13729	1752.617748216487	1471.9711868322
1	13751	1757.940093596914	1483.7273764188
1	13777	1762.416740931852	1450.8978912142
1	13795	1765.336489671219	1395.2975061321
1	13803	1765.393657410284	1458.177509232
1	13812	1765.548644929975	1449.3779970857
1	13818	1765.565035349454	1400.1597254882
1	13856	1768.200429580103	1486.8810108452
1	13862	1768.239279109695	1489.0374051712
1	13885	1773.056176771236	1420.8875983409
1	13891	1773.063707893986	1464.2834575811
1	13907	1774.221222893493	1354.9130750006
1	13933	1778.776655620118	1471.3775618324
1	13948	1779.812077153795	1469.9214587488
1	13965	1781.385428529765	1536.9672346382
1	13977	1782.119422974239	1507.3347712612
1	13984	1785.423230731281	1392.521357106
1	14016	1794.568877830689	1565.0818040963
2	13596	1743.444035614203	0
2	13624	1744.401492447854	0
2	13630	1744.467517526572	0
2	13685	1749.468457535412	0
2	13701	1750.778103925526	0
2	13707	1750.789741845996	0
2	13713	1750.807546725977	0
2	13729	1752.617748216487	0
2	13751	1757.940093596914	0
2	13777	1762.416740931852	0
2	13795	1765.336489671219	0
2	13803	1765.393657410284	0
2	13812	1765.548644929975	0
2	13818	1765.565035349454	0
2	13856	1768.200429580103	0
2	13862	1768.239279109695	0
2	13885	1773.056176771236	0
2	13891	1773.063707893986	0
2	13907	1774.221222893493	0
2	13933	1778.776655620118	0
2	13948	1779.812077153795	0
2	13965	1781.385428529765	0
2	13977	1782.119422974239	0
2	13984	1785.423230731281	0
2	14016	1794.568877830689	0
3	13596	1743.444035614203	100.06865905508
3	13624	1744.401492447854	185.43555804875
3	13630	1744.467517526572	71.9813946438
3	13685	1749.468457535412	130.36200024843
3	13701	1750.778103925526	124.70471649145
3	13707	1750.789741845996	155.96642420852
3	13713	1750.807546725977	136.93744076378
3	13729	1752.617748216487	126.33236427724
3	13751	1757.940093596914	118.91827808229
3	13777	1762.416740931852	212.87184848436
3	13795	1765.336489671219	120.10127945217
3	13803	1765.393657410284	157.517112798
3	13812	1765.548644929975	122.44062693982
3	13818	1765.565035349454	168.78242169202
3	13856	1768.200429580103	85.60784473955
3	13862	1768.239279109695	107.75025426309
3	13885	1773.056176771236	153.63434466611
3	13891	1773.063707893986	116.14646471756
3	13907	1774.221222893493	151.5446317976
3	13933	1778.776655620118	136.77544409132
3	13948	1779.812077153795	157.10733355689
3	13965	1781.385428529765	84.358749046434
3	13977	1782.119422974239	117.25867859477
3	13984	1785.423230731281	189.85790298075
3	14016	1794.568877830689	91.806931022749
4	13596	1743.444035614203	42
4	13624	1744.401492447854	75
4	13630	1744.467517526572	36
4	13685	1749.468457535412	44
4	13701	1750.778103925526	46
4	13707	1750.789741845996	56
4	13713	1750.807546725977	45
4	13729	1752.617748216487	39
4	13751	1757.940093596914	56
4	13777	1762.416740931852	79
4	13795	1765.336489671219	45
4	13803	1765.393657410284	63
4	13812	1765.548644929975	49
4	13818	1765.565035349454	45
4	13856	1768.200429580103	37
4	13862	1768.239279109695	37
4	13885	1773.056176771236	73
4	13891	1773.063707893986	41
4	13907	1774.221222893493	40
4	13933	1778.776655620118	37
4	13948	1779.812077153795	60
4	13965	1781.385428529765	51
4	13977	1782.119422974239	48
4	13984	1785.423230731281	65
4	14016	1794.568877830689	33
5	13596	1743.444035614203	0
5	13624	1744.401492447854	0
5	13630	1744.467517526572	0
5	13685	1749.468457535412	0
5	13701	1750.778103925526	0
5	13707	1750.789741845996	0
5	13713	1750.807546725977	0
5	13729	1752.617748216487	0
5	13751	1757.940093596914	0
5	13777	1762.416740931852	0
5	13795	1765.336489671219	0
5	13803	1765.393657410284	0
5	13812	1765.548644929975	0
5	13818	1765.565035349454	0
5	13856	1768.200429580103	0
5	13862	1768.239279109695	0
5	13885	1773.056176771236	0
5	13891	1773.063707893986	0
5	13907	1774.221222893493	0
5	13933	1778.776655620118	0
5	13948	1779.812077153795	0
5	13965	1781.385428529765	0
5	13977	1782.119422974239	0
5	13984	1785.423230731281	0
5	14016	1794.568877830689	0
6	13596	1743.444035614203	0
6	13624	1744.401492447854	0
6	13630	1744.467517526572	0
6	13685	1749.468457535412	0
6	13701	1750.778103925526	0
6	13707	1750.789741845996	0
6	13713	1750.807546725977	0
6	13729	1752.617748216487	0
6	13751	1757.940093596914	0
6	13777	1762.416740931852	0
6	13795	1765.336489671219	0
6	13803	1765.393657410284	0
6	13812	1765.548644929975	0
6	13818	1765.565035349454	0
6	13856	1768.200429580103	0
6	13862	1768.239279109695	0
6	13885	1773.056176771236	0
6	13891	1773.063707893986	0
6	13907	1774.221222893493	0
6	13933	1778.776655620118	0
6	13948	1779.812077153795	0
6	13965	1781.385428529765	0
6	13977	1782.119422974239	0
6	13984	1785.423230731281	0
6	14016	1794.568877830689	0
8	0	0	0
8	95	1.926031267566	1
8	102	1.994569975107	2
8	107	2.056858746501	3
8	124	2.999954812044	4
8	126	3.168432407124	5
8	128	3.26892791769	6
8	133	3.67202712998	5
8	157	4.574117481611	6
8	167	5.147762896999	7
8	169	5.294991090976	8
8	176	5.678352781348	9
8	180	5.755616118213	10
8	182	5.924530529803	11
8	189	6.294457185392	12
8	199	8.124473598214	13
8	201	8.729365815637	14
8	203	9.699794855815	15
8	208	11.330958404466	14
8	213	11.402779469212	13
8	217	11.550834268791	14
8	222	11.876374052977	15
8	224	11.909446299133	16
8	231	14.323589770686	17
8	236	14.480060280043	16
8	256	17.219814162103	15
8	271	17.543645362743	14
8	290	18.500427499447	15
8	300	20.411761491033	16
8	314	21.667092936786	17
8	338	22.323795703184	18
8	344	22.473626732232	17
8	349	22.586501318154	16
8	369	23.37835065568	15
8	389	24.688574342022	14
8	394	24.837762256557	13
8	408	25.750458505916	14
8	423	26.419324214113	13
8	438	29.009111547873	14
8	440	29.281940311695	15
8	442	29.336817323957	16
8	444	33.40034640725	17
8	456	36.005016031801	18
8	471	36.803892434095	17
8	486	38.190423304862	16
8	495	39.013757108958	17
8	498	39.060949797032	16
8	502	39.086422804263	17
8	507	39.212973468398	18
8	514	43.719557647347	19
8	526	50.274375008762	18
8	535	50.996361077646	19
8	553	52.42250703123	20
8	583	61.696165777718	19
8	590	61.772399266981	18
8	613	63.307766134865	17
8	618	63.329840091839	16
8	623	63.368319494157	15
8	630	64.127276955902	16
8	632	65.261130501624	17
8	634	66.065562909011	18
8	636	66.367421662295	19
8	638	68.17012254401	20
8	643	70.685532229692	19
8	663	71.975250694407	18
8	683	72.405840171172	17
8	725	74.246170173282	18
8	737	75.890657345916	19
8	747	76.384455376363	18
8	759	79.876326583258	19
8	773	80.892539672421	20
8	801	83.886932750726	19
8	826	85.894758149431	18
8	831	86.034344833545	17
8	843	86.45406601139	18
8	873	89.512524082739	17
8	878	89.559558826093	16
8	893	92.152580541485	15
8	898	92.194418792083	14
8	905	92.981387747585	15
8	915	93.864860489861	14
8	932	95.08316760922	15
8	941	95.567634618163	16
8	951	97.288253729361	17
8	978	100.617876802163	18
8	995	107.027346850476	19
8	1005	107.817279132267	18
8	1040	109.864043348345	17
8	1045	109.988460308435	16
8	1050	110.165556185952	15
8	1062	111.590293238204	16
8	1064	112.952481066467	17
8	1066	114.730454207357	18
8	1068	115.732703942373	19
8	1073	117.22530144419	18
8	1118	122.926138871177	17
8	1128	125.368789649631	16
8	1147	125.839674565549	15
8	1167	126.702344019312	16
8	1170	126.750946569325	15
8	1192	127.588881716325	16
8	1202	128.877172002619	15
8	1209	129.305156878381	16
8	1231	132.036280704793	17
8	1236	136.673035851123	16
8	1243	137.064707469564	17
8	1253	139.238201329255	16
8	1258	139.553324552835	15
8	1268	139.672091023255	14
8	1273	139.74813923938	13
8	1298	142.98571312813	12
8	1313	144.729352894543	11
8	1330	146.073389746846	12
8	1340	147.388174201906	11
8	1344	147.3885584545	12
8	1349	147.717437654011	13
8	1351	150.140316198615	14
8	1371	151.608401109033	13
8	1378	151.66691862659	12
8	1386	151.906276197804	11
8	1391	151.93620175367	10
8	1398	152.804289527024	11
8	1400	153.238484604909	12
8	1402	153.578769389567	13
8	1412	154.783159832596	12
8	1422	155.098911284407	11
8	1431	155.484343453099	12
8	1446	156.082742200662	13
8	1461	157.453284357295	12
8	1488	159.488284515241	13
8	1490	159.683488663888	14
8	1492	160.538039667054	15
8	1502	161.263899050987	14
8	1529	164.765029814855	15
8	1536	169.878133512633	16
8	1553	173.338306519328	17
8	1568	173.939217163735	16
8	1585	174.320001350785	17
8	1627	177.777388412229	18
8	1659	185.922435250129	19
8	1664	187.583731814429	18
8	1669	187.900385292157	17
8	1689	189.915048356286	16
8	1698	190.23583474045	17
8	1711	190.738161078288	16
8	1718	191.059441621677	17
8	1735	192.286269033691	18
8	1740	194.252065367983	17
8	1747	195.495394255966	18
8	1754	196.801890477952	19
8	1789	201.931194816844	18
8	1796	203.617046883361	19
8	1806	206.112402789368	18
8	1818	207.871633420615	19
8	1820	208.693588077071	20
8	1840	213.473769396085	19
8	1845	213.700642017775	18
8	1850	213.70211536559	17
8	1857	213.836308389146	18
8	1859	215.259213171709	19
8	1929	224.469324872389	18
8	1999	230.478684661074	17
8	2026	232.656371606945	18
8	2036	233.31174489578	17
8	2048	233.948893098757	18
8	2073	237.294231115537	17
8	2098	238.797726534001	16
8	2103	238.875118167098	15
8	2110	242.105152712497	16
8	2112	242.543218093932	17
8	2114	244.280150487037	18
8	2121	247.059983389115	19
8	2151	250.99008437541	18
8	2243	260.066405872656	17
8	2256	260.383851855986	16
8	2261	260.426500150397	15
8	2273	260.701165011387	16
8	2285	261.207921130554	17
8	2290	261.84777790352	16
8	2295	261.908522097156	15
8	2302	261.927232825945	16
8	2307	262.172392006849	15
8	2312	262.291793721813	14
8	2327	263.009190161812	13
8	2339	263.589842156063	14
8	2341	263.671978239302	15
8	2348	264.468872495433	16
8	2350	265.994462182754	17
8	2360	266.830405156292	16
8	2389	270.929756049059	17
8	2414	272.485029595317	18
8	2416	273.473623063005	19
8	2463	284.929405072396	20
8	2548	299.319470404386	19
8	2585	304.143348925879	20
8	2590	311.511357749088	19
8	2595	311.600584675066	18
8	2600	311.786605193697	17
8	2605	311.862544098243	16
8	2612	311.992213090264	17
8	2629	313.824922816445	18
8	2631	320.329264640941	19
8	2638	320.753754072586	20
8	2658	323.146590883128	19
8	2663	323.250590780407	18
8	2680	324.834744058183	19
8	2725	327.764429675312	18
8	2730	327.82165192407	17
8	2739	328.39649955442	18
8	2772	331.894113072732	17
8	2797	333.604530184225	16
8	2807	333.778024609641	15
8	2811	333.825212813004	16
8	2816	334.870128478091	17
8	2821	336.287851197493	16
8	2833	337.070553557886	17
8	2850	343.842225636516	18
8	2857	344.251663824645	19
8	2859	347.806112785841	20
8	2894	351.807684140763	19
8	2899	351.837263631402	18
8	2931	358.567736632297	19
8	2943	363.150762803209	20
8	2983	367.424958592571	19
8	2998	367.952508504611	18
8	3020	373.023320852726	19
8	3022	373.760294124236	20
8	3037	375.591202238078	19
8	3052	376.246439658782	18
8	3064	376.640665233029	17
8	3079	377.429112473163	16
8	3092	377.915361988695	15
8	3114	379.214781672123	16
8	3116	380.512530563798	17
8	3131	381.780207449579	16
8	3168	383.13551144805	17
8	3193	385.650514399211	16
8	3203	385.992771410856	15
8	3213	386.380773068701	14
8	3218	386.413831675819	13
8	3225	386.485347552974	14
8	3227	386.767127662297	15
8	3234	387.605612858488	16
8	3239	387.856323484187	15
8	3251	388.651931592009	16
8	3262	389.302126155841	17
8	3285	390.247884643077	18
8	3287	391.856018107675	19
8	3289	392.316430163036	20
8	3299	393.46295265829	19
8	3304	393.490102468061	18
8	3344	398.70047081282	17
8	3356	398.970388453188	18
8	3370	399.126687821014	19
8	3393	406.196381398098	18
8	3397	406.38626806664	19
8	3407	406.456349910382	18
8	3417	406.682599619129	17
8	3432	414.032172368417	18
8	3444	417.027438723225	19
8	3474	419.874377302933	18
8	3484	420.525878534103	17
8	3496	420.928061087763	18
8	3508	421.71833873826	19
8	3515	422.193256702598	20
8	3540	427.439823681382	19
8	3545	427.466327405633	18
8	3557	428.494661852186	19
8	3562	429.146138146338	18
8	3567	429.160335111955	17
8	3577	429.585325610728	16
8	3606	431.933412956144	17
8	3621	433.831658371887	18
8	3638	437.283256793233	19
8	3643	437.957556901692	18
8	3655	438.723666132947	19
8	3692	443.569648278737	20
8	3789	463.087259472622	19
8	3797	463.293993025852	18
8	3802	463.311027696429	17
8	3807	463.505667865021	16
8	3814	463.913313469931	17
8	3816	465.67797163823	18
8	3833	472.048248494579	19
8	3863	476.325863671296	18
8	3958	484.269529675676	17
8	3965	484.334767368105	18
8	3980	486.964593068876	17
8	4007	491.567824798131	18
8	4029	493.934492932228	19
8	4036	495.423814458194	20
8	4071	504.434900792075	19
8	4088	506.578905870298	18
8	4093	506.685345666497	17
8	4100	506.706708606835	16
8	4126	507.507049430203	15
8	4133	508.292552436	16
8	4150	510.451471559876	17
8	4177	511.987808804895	18
8	4194	513.236980816068	19
8	4219	517.469164987951	18
8	4231	517.699733789589	19
8	4256	519.049794148741	18
8	4266	519.547132161498	17
8	4278	521.603778464909	18
8	4285	524.344378289169	19
8	4290	524.669195087973	18
8	4297	526.755350449563	19
8	4301	529.043506819833	20
8	4341	533.226156450788	19
8	4409	536.894090379309	18
8	4454	541.589903376337	17
8	4461	541.64493855116	16
8	4478	542.291583926697	15
8	4491	542.360043999735	14
8	4509	542.839252849861	13
8	4519	542.946218882746	12
8	4531	543.568608813328	13
8	4538	544.866015944731	14
8	4540	545.117224305627	15
8	4562	547.663341750266	16
8	4564	550.32438815366	17
8	4566	550.584580530328	18
8	4568	550.778015559299	19
8	4570	550.856534029648	20
8	4590	557.816861560837	19
8	4605	561.035818197859	18
8	4652	575.18698819921	19
8	4657	576.822330458715	18
8	4662	576.929899980122	17
8	4677	579.1702348421	16
8	4684	580.607819343638	17
8	4696	581.016232101561	18
8	4721	583.087804227002	17
8	4733	585.984325627576	18
8	4743	586.167371455796	17
8	4750	586.551734317465	18
8	4765	587.628626209784	17
8	4780	588.269160001843	16
8	4790	588.808308126616	15
8	4802	589.841779189015	16
8	4809	591.245243975173	17
8	4814	592.135629332824	16
8	4819	592.20694998645	15
8	4826	592.559964241283	16
8	4828	595.773136931907	17
8	4830	596.5848109772	18
8	4834	597.963995421861	19
8	4836	598.139235349961	20
8	4839	598.441007015743	19
8	4874	601.115869843578	18
8	4889	601.228878769514	17
8	4896	601.656555028441	18
8	4923	608.15718721729	19
8	4958	614.037826786751	18
8	4970	614.802274010824	19
8	4985	619.147461780463	18
8	5005	619.651395875287	17
8	5017	620.704143158625	18
8	5022	621.047388821098	17
8	5062	623.431183945929	16
8	5072	623.682173736872	15
8	5082	623.859593864159	14
8	5119	626.093932938939	15
8	5181	631.230351662327	16
8	5191	631.416818208572	15
8	5206	631.934091072757	14
8	5228	633.406289820886	13
8	5236	633.599030004609	12
8	5243	633.827723696429	13
8	5250	634.194056818663	14
8	5267	635.043441253723	15
8	5276	636.017330597518	16
8	5291	640.268991408607	17
8	5293	641.888040189304	18
8	5328	646.395303708072	17
8	5338	646.61322850453	16
8	5353	646.920098145446	15
8	5363	647.206818483036	14
8	5367	647.464078908916	15
8	5372	647.80092563908	16
8	5374	648.616504820282	17
8	5376	649.590268217582	18
8	5381	651.558161953279	17
8	5393	652.619843941514	18
8	5415	655.487219269479	19
8	5425	656.000375624828	18
8	5430	656.395152124652	17
8	5442	657.847133407861	18
8	5467	662.475087678854	17
8	5476	663.120304615068	18
8	5524	671.610124353972	17
8	5539	672.569221956551	16
8	5548	672.769867887343	15
8	5564	673.451144314545	14
8	5584	674.451447503193	13
8	5589	674.675111781512	12
8	5596	674.860914771441	13
8	5601	675.21859220963	12
8	5606	675.226807794932	11
8	5611	675.245548745119	10
8	5643	676.864786125172	11
8	5665	677.700546718983	12
8	5672	678.687028534158	13
8	5679	679.041220931796	14
8	5681	679.263468404311	15
8	5683	679.56685986901	16
8	5700	683.456058193937	17
8	5730	685.655981958463	16
8	5737	685.865007455281	17
8	5747	686.119102975225	16
8	5752	686.132125227462	15
8	5757	686.205305945405	14
8	5762	686.233391496794	13
8	5774	686.924292607945	14
8	5776	686.997656936358	15
8	5778	690.50533312088	16
8	5793	693.212756843561	15
8	5805	694.549928952588	16
8	5807	695.060712676951	17
8	5809	695.654136728497	18
8	5813	699.072157519327	19
8	5816	699.122870214892	18
8	5826	699.219824741148	17
8	5841	699.578871922189	16
8	5846	699.631080914634	15
8	5858	699.938882520718	16
8	5877	700.572033871323	17
8	5879	700.616510346326	18
8	5887	701.258480837638	17
8	5894	702.546820010497	18
8	5896	704.280538291323	19
8	5898	705.398101435366	20
8	5913	707.113626172213	19
8	5955	714.09681951903	20
8	6065	731.640881544722	19
8	6130	735.864330813205	18
8	6157	738.04817603121	19
8	6182	739.449953374443	18
8	6187	739.46345938661	17
8	6209	741.015929354836	18
8	6221	746.134614503368	19
8	6268	749.796350959401	18
8	6306	753.036001449925	17
8	6338	754.49667719168	18
8	6340	754.72527418438	19
8	6390	762.039552709534	18
8	6395	762.064757124321	17
8	6405	762.355983742585	16
8	6412	765.09118042577	17
8	6414	765.461040605438	18
8	6444	768.720948347242	17
8	6448	768.766257809929	18
8	6453	769.693496501925	19
8	6495	786.310402657338	20
8	6555	809.215326016761	19
8	6572	809.617177637435	20
8	6584	810.810415199254	19
8	6602	812.400623657393	18
8	6612	812.769531337465	17
8	6637	815.426835419655	16
8	6642	815.48082130329	15
8	6654	815.842036511428	16
8	6676	817.954410315931	17
8	6678	818.040020378391	18
8	6680	820.100660518081	19
8	6685	821.527958123274	18
8	6692	823.028147507864	19
8	6697	826.753605255775	18
8	6702	826.814793544055	17
8	6707	827.046466804038	16
8	6714	827.42494285425	17
8	6741	829.838932201325	18
8	6746	830.062302143849	17
8	6770	832.063193370324	18
8	6808	833.598285371293	17
8	6813	833.630055285892	16
8	6820	836.934013736992	17
8	6822	839.180530486107	18
8	6834	841.147765110797	17
8	6852	842.296526936369	16
8	6861	843.4505931703	17
8	6896	845.147091220306	16
8	6911	845.414827981116	15
8	6924	845.668071714914	14
8	6939	846.623780775251	13
8	6949	847.630095630392	12
8	6954	847.667081564528	11
8	6971	849.231993703586	12
8	6973	849.901536712573	13
8	6975	850.142773799136	14
8	6977	850.191373871712	15
8	6979	851.072539509868	16
8	6989	851.453341411911	15
8	7001	851.731882359299	14
8	7019	852.44255314663	13
8	7033	852.709203064912	14
8	7035	852.73774984846	15
8	7040	852.987296384582	14
8	7044	852.991737273934	15
8	7080	854.576137249165	14
8	7085	854.59629001331	13
8	7090	854.619210836956	12
8	7109	856.267082815205	13
8	7114	856.795429827207	14
8	7124	857.193136625916	13
8	7131	858.732044195254	14
8	7146	859.74325332116	13
8	7156	860.23206377119	12
8	7163	860.637687848659	13
8	7178	861.173161745931	12
8	7203	862.192907069897	11
8	7207	862.193005397879	12
8	7217	863.165403895152	13
8	7234	865.50549997433	14
8	7236	866.00466732142	15
8	7245	867.792026028799	16
8	7253	869.048686136009	15
8	7260	870.829673499735	16
8	7262	874.200435282075	17
8	7264	877.60707029923	18
8	7266	879.89058648965	19
8	7273	882.40818566844	20
8	7323	892.601652577527	19
8	7333	893.150631060043	18
8	7340	893.222670881687	17
8	7355	893.814057101911	18
8	7360	894.501759856189	17
8	7375	894.808386049948	16
8	7380	895.277990492365	15
8	7387	895.538180319133	16
8	7392	895.716276613462	15
8	7397	895.735091529367	14
8	7402	895.924146971741	13
8	7409	896.372801142975	14
8	7411	896.792969258154	15
8	7413	897.064157838196	16
8	7418	898.401202750217	15
8	7433	899.156989535294	14
8	7447	900.107408842951	15
8	7485	903.339817548388	14
8	7490	903.775735925916	13
8	7510	904.671725595197	12
8	7540	906.582398194616	11
8	7547	906.685835337045	12
8	7569	907.867689383028	11
8	7577	908.028220739129	10
8	7591	908.423481427954	11
8	7593	908.521601187796	12
8	7618	910.152117152433	13
8	7620	910.496088349459	14
8	7622	910.597147972715	15
8	7624	910.901351803543	16
8	7626	910.928791220141	17
8	7628	912.530828265849	18
8	7638	913.241799521109	17
8	7643	913.423245916553	16
8	7660	914.308702510304	17
8	7697	916.001355899213	16
8	7705	916.160233457671	15
8	7710	916.297059415974	14
8	7720	917.433905736342	13
8	7732	918.68254901411	14
8	7734	921.837550665505	15
8	7736	921.86101089647	16
8	7738	923.144906137068	17
8	7753	924.015338936441	16
8	7763	924.475960204037	15
8	7773	924.885554946889	14
8	7790	926.602021293447	13
8	7795	926.680890610184	12
8	7803	926.951497695163	11
8	7813	927.131795048084	10
8	7820	927.332599722298	11
8	7832	930.980297988526	12
8	7834	931.291010246254	13
8	7836	931.323349790854	14
8	7838	933.883463656278	15
8	7870	935.123414151066	16
8	7892	939.021527480244	17
8	7937	943.664527042536	16
8	7949	946.446587228772	17
8	7976	949.210860532119	18
8	7985	949.741894129927	19
8	7993	950.451008199852	18
8	8010	956.885622157263	19
8	8012	960.485339464933	20
8	8097	973.046313760321	19
8	8102	973.569531984697	18
8	8109	976.28466545641	19
8	8118	979.592788932394	20
8	8121	979.731950376567	19
8	8131	980.510994145747	18
8	8156	986.794054326494	17
8	8161	986.826427276893	16
8	8193	988.188286979214	15
8	8213	989.807727931791	16
8	8218	990.341979645162	15
8	8235	992.297028263476	16
8	8237	992.548423458819	17
8	8262	996.264693011715	16
8	8277	996.548053203572	15
8	8292	996.818380858174	14
8	8311	997.958387634596	15
8	8316	999.369846507136	16
8	8326	1000.60163827523	15
8	8335	1001.473095676349	16
8	8345	1003.259374206636	17
8	8357	1005.572762324816	16
8	8405	1007.431524069255	15
8	8440	1009.28082420843	14
8	8465	1009.798572535826	13
8	8470	1009.992768521211	12
8	8480	1010.208716073179	11
8	8485	1010.580269284246	10
8	8492	1011.254058690843	11
8	8494	1011.538652720993	12
8	8496	1011.732638209946	13
8	8498	1012.022740227022	14
8	8500	1012.078211703359	15
8	8530	1013.791078939233	14
8	8557	1016.642847115248	15
8	8559	1017.074189341042	16
8	8561	1017.399035442758	17
8	8566	1020.265450455766	16
8	8571	1020.369374907716	15
8	8583	1021.118919876462	16
8	8595	1022.238570702048	17
8	8597	1024.754835392353	18
8	8599	1025.184001010771	19
8	8629	1036.089391992487	18
8	8634	1036.172934057899	17
8	8644	1036.479558364964	16
8	8651	1037.235717404022	17
8	8663	1038.715174518009	18
8	8673	1041.520535439228	17
8	8678	1041.880146974286	16
8	8702	1042.908933382338	17
8	8720	1043.86429683857	16
8	8732	1045.101589306453	17
8	8757	1046.914930793845	16
8	8774	1047.795241716758	17
8	8783	1048.474920677106	18
8	8786	1048.552208257736	17
8	8791	1048.574201015979	16
8	8795	1048.576367425446	17
8	8800	1050.524860830595	18
8	8840	1054.614102834874	17
8	8857	1058.128873183274	18
8	8869	1063.452033065994	19
8	8901	1068.771890715769	20
8	8906	1070.146070710025	19
8	8923	1071.431275140001	18
8	8931	1071.588105034923	17
8	8936	1071.678302886999	16
8	8946	1072.885953025847	15
8	8953	1073.184806888226	16
8	8973	1075.224421978781	15
8	9003	1076.594970957756	14
8	9008	1076.706266855047	13
8	9030	1077.159818855971	12
8	9038	1077.441655779898	11
8	9050	1078.05147609287	12
8	9052	1078.252331568578	13
8	9054	1078.550056825061	14
8	9061	1079.377866091423	15
8	9066	1079.579410690904	14
8	9086	1080.485705271764	13
8	9090	1080.487263073686	14
8	9097	1081.052140723582	15
8	9115	1082.050221927682	14
8	9130	1084.070838953282	13
8	9140	1084.501941603986	12
8	9147	1084.950827144683	13
8	9159	1085.327612066659	14
8	9166	1085.586129943369	15
8	9188	1087.89819588575	16
8	9190	1088.16511400372	17
8	9200	1089.925527226734	16
8	9212	1090.672127702634	17
8	9214	1091.829746363773	18
8	9216	1092.831328071242	19
8	9221	1093.194207512861	18
8	9253	1096.742514890773	19
8	9265	1105.117896130633	20
8	9270	1105.819210050703	19
8	9307	1108.950643755793	20
8	9401	1118.612412790045	19
8	9437	1119.362150830628	18
8	9499	1124.848967608986	19
8	9511	1127.409956630652	20
8	9516	1128.919491125788	19
8	9523	1129.454205793862	20
8	9578	1136.875759589363	19
8	9583	1136.985236772814	18
8	9595	1137.954923961896	19
8	9625	1143.155269526851	18
8	9639	1145.849876249422	19
8	9677	1149.774495692337	18
8	9682	1149.998409989217	17
8	9712	1152.602231084289	16
8	9717	1152.981776506453	15
8	9741	1153.924262599971	16
8	9756	1154.253520382932	15
8	9764	1154.309677121617	14
8	9776	1154.84356363821	15
8	9778	1154.947485202196	16
8	9822	1161.195554557137	17
8	9837	1163.726299693835	18
8	9839	1163.765771420655	19
8	9923	1179.154839436145	20
8	9926	1179.303278410839	19
8	9931	1179.313000656198	18
8	9948	1183.883784782963	19
8	9950	1183.93825965875	20
8	9960	1186.753710745829	19
8	9972	1188.531660145964	20
8	9987	1192.187661582056	19
8	10009	1197.567299999467	20
8	10034	1213.100751930671	19
8	10049	1214.472514753121	18
8	10056	1214.517618010145	17
8	10069	1214.599203909747	16
8	10073	1214.700594590047	17
8	10078	1215.440445459255	18
8	10092	1217.65499467735	19
8	10125	1224.440103352859	18
8	10140	1225.002620802825	17
8	10162	1226.261988064469	18
8	10202	1237.45097574292	17
8	10224	1240.210600445527	18
8	10226	1240.680529421222	19
8	10233	1241.276295072221	20
8	10258	1243.478685308525	19
8	10273	1243.767543687496	18
8	10278	1244.137355811073	17
8	10293	1247.567533515903	16
8	10313	1248.667671605435	15
8	10343	1254.474658157344	14
8	10350	1254.706302869279	15
8	10352	1255.755232271691	16
8	10354	1255.828593651855	17
8	10356	1256.26173624481	18
8	10358	1265.722999123853	19
8	10370	1275.577348146139	20
8	10405	1277.042621721833	19
8	10410	1277.113303308526	18
8	10417	1277.998324110395	19
8	10432	1281.601517670276	18
8	10457	1282.571243481169	17
8	10462	1282.690202953654	16
8	10469	1287.315206359505	17
8	10471	1289.013370293367	18