version 2
run Multitask30-29-20150106-11:38:00-4180
attr configname Multitask30
attr datetime 20150106-11:38:00
attr experiment Multitask30
attr inifile omnetpp.ini
attr iterationvars ""
attr iterationvars2 $repetition=29
attr measurement ""
attr network Multitask
attr processid 4180
attr repetition 29
attr replication #29
attr resultdir results
attr runnumber 29
attr seedset 29

vector 8  Multitask.allocateQ2  queueLength:vector  ETV
attr interpolationmode  sample-hold
attr title  "queue length, vector"
vector 11  Multitask.queue3  queueLength:vector  ETV
attr interpolationmode  sample-hold
attr title  "queue length, vector"
vector 13  Multitask.queue3  busy:vector  ETV
attr interpolationmode  sample-hold
attr title  "server busy state, vector"
vector 15  Multitask.queue4  queueLength:vector  ETV
attr interpolationmode  sample-hold
attr title  "queue length, vector"
vector 17  Multitask.queue4  busy:vector  ETV
attr interpolationmode  sample-hold
attr title  "server busy state, vector"
vector 19  Multitask.queue5  queueLength:vector  ETV
attr interpolationmode  sample-hold
attr title  "queue length, vector"
vector 21  Multitask.queue5  busy:vector  ETV
attr interpolationmode  sample-hold
attr title  "server busy state, vector"
vector 23  Multitask.queue6  queueLength:vector  ETV
attr interpolationmode  sample-hold
attr title  "queue length, vector"
vector 25  Multitask.queue6  busy:vector  ETV
attr interpolationmode  sample-hold
attr title  "server busy state, vector"
vector 27  Multitask.queue7  queueLength:vector  ETV
attr interpolationmode  sample-hold
attr title  "queue length, vector"
vector 29  Multitask.queue7  busy:vector  ETV
attr interpolationmode  sample-hold
attr title  "server busy state, vector"
vector 30  Multitask.resourceCPU  amount:vector  ETV
attr interpolationmode  sample-hold
attr title  "available resource, vector"
vector 12  Multitask.queue3  queueingTime:vector  ETV
attr interpolationmode  none
attr title  "queueing time at dequeue, vector"
attr unit  s
vector 20  Multitask.queue5  queueingTime:vector  ETV
attr interpolationmode  none
attr title  "queueing time at dequeue, vector"
attr unit  s
vector 16  Multitask.queue4  queueingTime:vector  ETV
attr interpolationmode  none
attr title  "queueing time at dequeue, vector"
attr unit  s
vector 28  Multitask.queue7  queueingTime:vector  ETV
attr interpolationmode  none
attr title  "queueing time at dequeue, vector"
attr unit  s
vector 24  Multitask.queue6  queueingTime:vector  ETV
attr interpolationmode  none
attr title  "queueing time at dequeue, vector"
attr unit  s
vector 9  Multitask.allocateQ2  queueingTime:vector  ETV
attr interpolationmode  none
attr title  "queueing time at dequeue, vector"
attr unit  s
vector 0  Multitask.sink  lifeTime:vector  ETV
attr interpolationmode  none
attr title  "lifetime of arrived jobs, vector"
attr unit  s
vector 1  Multitask.sink  totalQueueingTime:vector  ETV
attr interpolationmode  none
attr title  "the total time spent in queues by arrived jobs, vector"
attr unit  s
vector 4  Multitask.sink  queuesVisited:vector  ETV
attr interpolationmode  none
attr title  "the total number of queues visited by arrived jobs, vector"
vector 3  Multitask.sink  totalServiceTime:vector  ETV
attr interpolationmode  none
attr title  "the total time spent  by arrived jobs, vector"
attr unit  s
vector 2  Multitask.sink  totalDelayTime:vector  ETV
attr interpolationmode  none
attr title  "the total time spent in delay nodes by arrived jobs, vector"
attr unit  s
vector 5  Multitask.sink  delaysVisited:vector  ETV
attr interpolationmode  none
attr title  "the total number of delays visited by arrived jobs, vector"
vector 6  Multitask.sink  generation:vector  ETV
attr interpolationmode  none
attr title  "the generation of the arrived jobs, vector"
0	12074	1432.343463259891	1432.3434632599
0	12133	1447.332095869552	1447.3320958696
0	12139	1447.612390734665	1447.6123907347
0	12145	1447.683561543825	1447.6835615438
0	12246	1462.734511376945	1462.7345113769
0	12269	1466.318014551917	1466.3180145519
0	12294	1467.058314182338	1467.0583141823
0	12300	1467.194160019344	1467.1941600193
0	12306	1467.290838413028	1467.290838413
0	12320	1467.61476931982	1467.6147693198
0	12326	1467.706645095416	1467.7066450954
0	12332	1467.73668132112	1467.7366813211
0	12346	1468.229018528865	1468.2290185289
0	12372	1472.873510854509	1472.8735108545
0	12378	1472.948896351276	1472.9488963513
0	12409	1474.709345023713	1474.7093450237
0	12415	1474.754433386894	1474.7544333869
0	12421	1474.787114907772	1474.7871149078
0	12487	1480.195443309783	1480.1954433098
0	12498	1480.536652945364	1480.5366529454
0	12513	1481.0205986662	1481.0205986662
0	12525	1483.857798657383	1483.8577986574
0	12537	1486.283714926046	1486.283714926
0	12564	1488.802654332394	1488.8026543324
0	12576	1492.028461802931	1492.0284618029
1	12074	1432.343463259891	1149.1324255744
1	12133	1447.332095869552	1192.4954591207
1	12139	1447.612390734665	1156.6796878446
1	12145	1447.683561543825	1124.7033105237
1	12246	1462.734511376945	1200.336648745
1	12269	1466.318014551917	1150.6358092077
1	12294	1467.058314182338	1100.2174399876
1	12300	1467.194160019344	1126.5190338929
1	12306	1467.290838413028	1181.4482471234
1	12320	1467.61476931982	1197.3979526343
1	12326	1467.706645095416	1154.1425543637
1	12332	1467.73668132112	1147.7734143283
1	12346	1468.229018528865	1124.5546905117
1	12372	1472.873510854509	1125.1177574762
1	12378	1472.948896351276	1178.1193898399
1	12409	1474.709345023713	1254.1567993727
1	12415	1474.754433386894	1163.1000287563
1	12421	1474.787114907772	1162.4408935769
1	12487	1480.195443309783	1097.955263975
1	12498	1480.536652945364	1183.0337331285
1	12513	1481.0205986662	1178.1320306499
1	12525	1483.857798657383	1136.6326666454
1	12537	1486.283714926046	1197.8779754789
1	12564	1488.802654332394	1216.9594920602
1	12576	1492.028461802931	1158.285844035
2	12074	1432.343463259891	0
2	12133	1447.332095869552	0
2	12139	1447.612390734665	0
2	12145	1447.683561543825	0
2	12246	1462.734511376945	0
2	12269	1466.318014551917	0
2	12294	1467.058314182338	0
2	12300	1467.194160019344	0
2	12306	1467.290838413028	0
2	12320	1467.61476931982	0
2	12326	1467.706645095416	0
2	12332	1467.73668132112	0
2	12346	1468.229018528865	0
2	12372	1472.873510854509	0
2	12378	1472.948896351276	0
2	12409	1474.709345023713	0
2	12415	1474.754433386894	0
2	12421	1474.787114907772	0
2	12487	1480.195443309783	0
2	12498	1480.536652945364	0
2	12513	1481.0205986662	0
2	12525	1483.857798657383	0
2	12537	1486.283714926046	0
2	12564	1488.802654332394	0
2	12576	1492.028461802931	0
3	12074	1432.343463259891	88.638719561078
3	12133	1447.332095869552	83.251337501287
3	12139	1447.612390734665	97.25023682537
3	12145	1447.683561543825	175.69654877778
3	12246	1462.734511376945	67.184920978396
3	12269	1466.318014551917	122.9408690696
3	12294	1467.058314182338	106.51939178088
3	12300	1467.194160019344	117.52265646007
3	12306	1467.290838413028	119.74588199983
3	12320	1467.61476931982	119.26915721946
3	12326	1467.706645095416	102.38842746585
3	12332	1467.73668132112	96.200640310532
3	12346	1468.229018528865	143.8080966498
3	12372	1472.873510854509	136.10753652267
3	12378	1472.948896351276	128.50364823017
3	12409	1474.709345023713	91.337258325568
3	12415	1474.754433386894	89.936853932369
3	12421	1474.787114907772	99.693119207065
3	12487	1480.195443309783	95.558878682244
3	12498	1480.536652945364	73.737107731384
3	12513	1481.0205986662	125.34187021596
3	12525	1483.857798657383	121.41858730309
3	12537	1486.283714926046	137.35964217431
3	12564	1488.802654332394	85.786512137355
3	12576	1492.028461802931	144.8850904126
4	12074	1432.343463259891	42
4	12133	1447.332095869552	40
4	12139	1447.612390734665	33
4	12145	1447.683561543825	48
4	12246	1462.734511376945	37
4	12269	1466.318014551917	68
4	12294	1467.058314182338	40
4	12300	1467.194160019344	59
4	12306	1467.290838413028	46
4	12320	1467.61476931982	37
4	12326	1467.706645095416	44
4	12332	1467.73668132112	42
4	12346	1468.229018528865	64
4	12372	1472.873510854509	49
4	12378	1472.948896351276	49
4	12409	1474.709345023713	40
4	12415	1474.754433386894	36
4	12421	1474.787114907772	37
4	12487	1480.195443309783	35
4	12498	1480.536652945364	34
4	12513	1481.0205986662	58
4	12525	1483.857798657383	37
4	12537	1486.283714926046	60
4	12564	1488.802654332394	35
4	12576	1492.028461802931	60
5	12074	1432.343463259891	0
5	12133	1447.332095869552	0
5	12139	1447.612390734665	0
5	12145	1447.683561543825	0
5	12246	1462.734511376945	0
5	12269	1466.318014551917	0
5	12294	1467.058314182338	0
5	12300	1467.194160019344	0
5	12306	1467.290838413028	0
5	12320	1467.61476931982	0
5	12326	1467.706645095416	0
5	12332	1467.73668132112	0
5	12346	1468.229018528865	0
5	12372	1472.873510854509	0
5	12378	1472.948896351276	0
5	12409	1474.709345023713	0
5	12415	1474.754433386894	0
5	12421	1474.787114907772	0
5	12487	1480.195443309783	0
5	12498	1480.536652945364	0
5	12513	1481.0205986662	0
5	12525	1483.857798657383	0
5	12537	1486.283714926046	0
5	12564	1488.802654332394	0
5	12576	1492.028461802931	0
6	12074	1432.343463259891	0
6	12133	1447.332095869552	0
6	12139	1447.612390734665	0
6	12145	1447.683561543825	0
6	12246	1462.734511376945	0
6	12269	1466.318014551917	0
6	12294	1467.058314182338	0
6	12300	1467.194160019344	0
6	12306	1467.290838413028	0
6	12320	1467.61476931982	0
6	12326	1467.706645095416	0
6	12332	1467.73668132112	0
6	12346	1468.229018528865	0
6	12372	1472.873510854509	0
6	12378	1472.948896351276	0
6	12409	1474.709345023713	0
6	12415	1474.754433386894	0
6	12421	1474.787114907772	0
6	12487	1480.195443309783	0
6	12498	1480.536652945364	0
6	12513	1481.0205986662	0
6	12525	1483.857798657383	0
6	12537	1486.283714926046	0
6	12564	1488.802654332394	0
6	12576	1492.028461802931	0
8	0	0	0
8	114	4.054063033358	1
8	119	4.254113453493	2
8	129	4.705243167525	1
8	136	4.964627747049	2
8	146	5.509551852617	1
8	153	6.027930052542	2
8	165	6.738988629529	3
8	170	7.04358145177	2
8	182	7.815345068589	3
8	204	11.122204931442	4
8	206	12.406158131926	5
8	208	12.740687719222	6
8	210	12.969502216785	7
8	212	13.210450551633	8
8	214	14.406964857685	9
8	216	14.618802478456	10
8	218	14.981672842297	11
8	220	15.810796363334	12
8	222	16.120880606872	13
8	227	16.581095489124	12
8	239	17.817513042146	13
8	241	18.418326054912	14
8	243	18.898472183716	15
8	248	18.986703441402	14
8	255	19.283317209636	15
8	257	19.93337128822	16
8	259	20.0912348766	17
8	269	23.324840314613	16
8	273	23.443667034628	17
8	281	24.814260269722	16
8	293	28.431699730387	17
8	295	30.479652822797	18
8	297	30.499668427588	19
8	302	31.553946525721	18
8	317	32.056940765918	17
8	324	33.470645485479	18
8	326	35.094063560001	19
8	343	40.660640187699	20
8	348	41.264260922958	19
8	383	45.585635289931	18
8	392	47.677098182576	19
8	395	47.860593689466	18
8	407	50.123510973018	19
8	427	54.510919487807	18
8	436	54.817653661536	19
8	469	56.846361672444	18
8	476	56.912950108871	17
8	506	58.571366833774	16
8	529	62.776938907225	15
8	534	62.998550503797	14
8	544	63.148806813281	13
8	586	67.435595572296	14
8	592	67.83360210084	15
8	640	73.1302078913	16
8	666	75.539477088971	17
8	674	77.427785189033	18
8	679	78.939001031386	17
8	701	81.409413669931	18
8	710	85.712378108407	19
8	713	85.898558950299	18
8	718	85.961348811136	17
8	735	87.167464148601	18
8	755	88.11020227306	17
8	760	88.111272190239	16
8	765	88.142441860725	15
8	770	88.146798773394	14
8	787	90.111907764807	15
8	796	92.913279842823	16
8	801	95.372076294317	17
8	806	98.277298827641	16
8	831	100.440096612239	15
8	835	100.728572985391	16
8	850	104.31670136956	17
8	875	105.113185021919	16
8	880	105.146289255717	15
8	884	105.15087314724	16
8	887	105.151501246499	15
8	892	105.18457876057	14
8	906	105.615760720921	13
8	927	106.804229120947	12
8	932	106.879949119913	11
8	954	107.543726507846	12
8	956	107.655220173178	13
8	978	110.532809119705	14
8	980	110.882028364662	15
8	982	111.998043420198	16
8	984	113.682903093822	17
8	989	114.279955692774	16
8	996	117.156934060402	17
8	998	117.916657731824	18
8	1000	118.090387425302	19
8	1025	122.18063717013	18
8	1049	123.13494245131	19
8	1057	123.737919400955	18
8	1097	126.51885755278	17
8	1142	131.076320853882	16
8	1147	131.205325196937	15
8	1152	131.297696352738	14
8	1159	131.828113452862	15
8	1161	132.054748309538	16
8	1163	132.90987343477	17
8	1180	133.960618027437	18
8	1182	134.836793099227	19
8	1217	137.313043898131	18
8	1277	142.304596983781	17
8	1294	144.504898812972	18
8	1296	147.248829269581	19
8	1306	148.965428727448	18
8	1323	149.771254490206	17
8	1331	150.270639711406	16
8	1343	150.647259137438	15
8	1347	150.811592430461	16
8	1352	150.944316535657	17
8	1355	150.950870134391	16
8	1360	151.042678955926	15
8	1372	151.300272253525	16
8	1387	151.978229824144	15
8	1404	153.252416891163	16
8	1411	154.121769668461	17
8	1413	154.292425831591	18
8	1417	155.811986366192	19
8	1440	157.863086406827	18
8	1470	159.939011582999	17
8	1480	160.059533777799	16
8	1492	160.721347359591	17
8	1499	164.5814707715	18
8	1501	168.643224756192	19
8	1516	169.828965283544	18
8	1528	172.293215941631	19
8	1538	175.349308104618	18
8	1543	175.432421766176	17
8	1560	176.887891293032	18
8	1570	177.20388638334	17
8	1595	179.188124097822	16
8	1610	180.399033608719	15
8	1617	180.643386749264	16
8	1626	181.149187209831	17
8	1634	181.464029342978	16
8	1641	183.219109604027	17
8	1643	188.627482517394	18
8	1645	194.398008890167	19
8	1695	200.496477297926	18
8	1722	204.273691102517	19
8	1732	206.056496621981	18
8	1737	206.279051866364	17
8	1744	209.042007461176	18
8	1759	210.590092100498	17
8	1769	210.986396566055	16
8	1776	211.968638765114	17
8	1778	215.464309331526	18
8	1780	216.240712478528	19
8	1815	228.661902871868	18
8	1830	229.354139309235	17
8	1835	229.373168947461	16
8	1840	229.434327110896	15
8	1847	229.587258440604	16
8	1872	231.752601277996	15
8	1879	232.366144306273	16
8	1881	232.369672263699	17
8	1890	234.413443461314	18
8	1903	235.034642245506	17
8	1913	236.455838425028	16
8	1927	237.20282106545	17
8	1930	237.288314739086	16
8	1942	238.269861751429	17
8	1951	240.463112340326	18
8	1964	241.776909848415	17
8	1971	242.369762196691	18
8	1973	243.883166807958	19
8	1975	243.891274520252	20
8	1980	245.684976326768	19
8	1985	245.774663598928	18
8	1990	245.85642714872	17
8	2012	248.264962178145	18
8	2014	249.642580983304	19
8	2054	256.121375461513	18
8	2064	256.299087572171	17
8	2074	257.502825757881	16
8	2094	259.245615256712	15
8	2119	261.83564017858	14
8	2139	262.732413408685	13
8	2151	263.093132572026	14
8	2153	263.352632240212	15
8	2163	263.71493754881	14
8	2168	263.727760201758	13
8	2180	265.296733868655	14
8	2185	268.27993917186	13
8	2192	268.5219808051	14
8	2197	269.121152725005	13
8	2209	271.714355818058	14
8	2216	272.079448098872	15
8	2218	272.140649063919	16
8	2227	273.580360849672	17
8	2235	273.793237766779	16
8	2257	274.762922870752	15
8	2277	276.264106977448	16
8	2282	277.709440194988	15
8	2304	279.399715436353	16
8	2306	280.025463306517	17
8	2318	283.692736676341	18
8	2323	285.335701356977	17
8	2330	286.876309671892	18
8	2332	288.371229817485	19
8	2337	288.530582850291	18
8	2382	290.340859420614	17
8	2394	290.600713068914	16
8	2399	290.601914001065	15
8	2407	290.715835302527	14
8	2442	294.16691733476	13
8	2446	294.172690567693	14
8	2451	294.443528963238	15
8	2463	296.795631357564	16
8	2468	297.262074544502	15
8	2485	298.403756841835	14
8	2490	298.426388366899	13
8	2503	298.812344618536	12
8	2508	299.220357106798	11
8	2520	300.192105824542	12
8	2522	301.531765403083	13
8	2524	302.815962568387	14
8	2526	302.964304053653	15
8	2528	303.940346887231	16
8	2535	304.973149176048	17
8	2537	308.481736949575	18
8	2547	309.789026364975	17
8	2559	309.966753943762	18
8	2576	315.145508432005	19
8	2591	323.290124736427	18
8	2613	329.01300650871	19
8	2618	340.721570068835	18
8	2625	340.887631614303	19
8	2640	342.980934268456	18
8	2682	347.056698207003	19
8	2692	350.65799513358	18
8	2707	351.363790146284	17
8	2722	353.215375601981	16
8	2727	353.228652764132	15
8	2752	353.932196592977	14
8	2759	354.225790274791	13
8	2769	354.580090624786	12
8	2773	354.628935490937	13
8	2778	354.695963655665	12
8	2786	354.749924946243	11
8	2804	355.407842402258	10
8	2818	358.254375430276	11
8	2820	358.311990704194	12
8	2823	358.335936574936	11
8	2830	358.464094336463	12
8	2835	358.742194364944	11
8	2841	358.94724443529	12
8	2847	359.113842554806	11
8	2854	360.423086546119	12
8	2866	362.535359407902	13
8	2868	362.928602524603	14
8	2870	364.067897649897	15
8	2882	366.725274871343	16
8	2892	367.429350853065	15
8	2899	368.342796538052	16
8	2939	371.156778086933	15
8	2946	371.311968640325	16
8	2963	372.03535053794	17
8	2985	374.6257913124	18
8	3002	376.71319071944	17
8	3020	377.676327952108	16
8	3030	377.894142824678	15
8	3047	379.11863146462	16
8	3054	379.718141353814	17
8	3066	381.711283774541	18
8	3068	383.442153210661	19
8	3078	388.362913734595	18
8	3095	399.161279695703	19
8	3097	401.259648489686	20
8	3142	415.102615109666	19
8	3192	419.425319717701	18
8	3202	419.723004953421	17
8	3207	419.780897913497	16
8	3211	419.88894442374	17
8	3251	423.356931972569	18
8	3258	424.251087063717	19
8	3303	429.276600209425	18
8	3330	435.619891019126	19
8	3347	436.697718544219	18
8	3354	436.883344431354	19
8	3397	440.152352069276	18
8	3407	440.699000858491	17
8	3424	442.649520911268	18
8	3426	442.702849519786	19
8	3428	443.838660185514	20
8	3458	445.626790158148	19
8	3502	451.026601053131	20
8	3520	457.54479355018	19
8	3555	464.200009586779	18
8	3565	464.944322044887	17
8	3570	465.038389253917	16
8	3575	465.160323173729	15
8	3597	468.794994322404	16
8	3599	469.015048140471	17
8	3604	469.429734568896	16
8	3609	469.5355050736	15
8	3616	469.668873048381	16
8	3626	471.719080063608	15
8	3630	472.042253424092	16
8	3635	473.903925886062	17
8	3637	474.035223019036	18
8	3696	476.470480644184	19
8	3739	483.962586312048	18
8	3759	485.750314193208	17
8	3794	493.692236369354	16
8	3806	494.453821246459	17
8	3813	495.883418286189	18
8	3833	498.207525470203	17
8	3838	498.24485245702	16
8	3853	498.919148412906	15
8	3868	499.774703402857	14
8	3888	500.657898825288	13
8	3900	500.793567053796	14
8	3945	504.595972789078	13
8	3967	505.571604769318	14
8	3969	506.621254023015	15
8	3974	508.098879393642	14
8	3996	511.250252312234	15
8	4003	511.432209823847	14
8	4025	512.434322079068	15
8	4030	512.668005073669	16
8	4057	517.99577456783	17
8	4067	523.544665051544	16
8	4079	524.91720204083	17
8	4091	526.655544212691	18
8	4101	527.031357618669	17
8	4111	527.194845349906	16
8	4116	527.272987439362	15
8	4131	528.267928194412	14
8	4136	528.307519168761	13
8	4168	531.087939186145	14
8	4170	531.209291730136	15
8	4190	532.378239708017	14
8	4205	533.590680847761	13
8	4214	534.112454337615	14
8	4257	537.453931322809	13
8	4264	537.728054661652	14
8	4269	540.130924656489	13
8	4276	540.19338764844	12
8	4283	540.24821953074	13
8	4291	540.4590090028	12
8	4295	540.529750205619	13
8	4298	540.731667655141	12
8	4308	542.656268009346	11
8	4345	546.303471239627	12
8	4347	546.3287127365	13
8	4351	547.036169697704	14
8	4354	547.187929060185	13
8	4359	547.306384870094	12
8	4366	548.317019468651	13
8	4371	550.798592200511	12
8	4376	550.842414602635	11
8	4403	551.488358397419	12
8	4410	552.390478000698	13
8	4412	553.530491366891	14
8	4414	554.395638675099	15
8	4424	555.314164362655	14
8	4431	555.419590543186	15
8	4453	557.788033758052	16
8	4485	561.581250366424	15
8	4505	562.734403105962	16
8	4517	566.592736586241	17
8	4524	568.104700725203	18
8	4529	568.611514735045	17
8	4541	569.909499020487	18
8	4558	571.711355242166	17
8	4566	571.745471168326	16
8	4570	571.803083224793	17
8	4575	572.505045004231	18
8	4577	573.591419250407	19
8	4604	576.212988158293	20
8	4639	578.269465203878	19
8	4659	581.417721255521	18
8	4666	584.058459972398	19
8	4668	586.6277325979	20
8	4675	589.100274740882	19
8	4698	592.401700738871	18
8	4730	593.281216447131	17
8	4737	593.369119046261	16
8	4742	593.40686660758	15
8	4760	593.796105856511	14
8	4775	595.426923367154	15
8	4792	598.071890053662	16
8	4799	601.717988750224	17
8	4859	604.419521219116	16
8	4888	606.296980555671	17
8	4911	606.818203157931	16
8	4916	606.877779148141	15
8	4966	609.281874122984	14
8	4978	610.149511342768	15
8	4980	613.256795075556	16
8	4985	613.987453116262	15
8	4995	614.345853388975	14
8	5000	614.391900247294	13
8	5012	614.7135819191	12
8	5032	615.745233645889	13
8	5037	616.343505825013	12
8	5042	616.408861595265	11
8	5054	616.763106409499	10
8	5063	616.975417301482	11
8	5081	618.337338128091	12
8	5098	619.56262472856	13
8	5105	623.162034562039	14
8	5107	623.293654745376	15
8	5109	623.598723301217	16
8	5121	624.380929333637	17
8	5126	624.512336609032	16
8	5138	624.844543587097	17
8	5140	625.500109798962	18
8	5142	627.7609328772	19
8	5159	632.249727375045	20
8	5174	634.495598754436	19
8	5184	634.515482993096	18
8	5191	634.628615722193	17
8	5201	635.11750281355	16
8	5211	635.895909660634	15
8	5224	636.009541523316	14
8	5228	636.060349822172	15
8	5230	636.143776746428	16
8	5240	636.572661691226	17
8	5242	636.678839168964	18
8	5262	639.057525045846	17
8	5267	639.117511530382	16
8	5276	639.939988841133	17
8	5301	640.468876327011	16
8	5309	640.552066719333	15
8	5321	641.084748167521	16
8	5351	643.348114715308	15
8	5355	643.451100925942	16
8	5358	643.557492098372	15
8	5375	646.172486114339	16
8	5377	648.50935866354	17
8	5392	649.801356223382	16
8	5397	649.846505741008	15
8	5444	652.635554920936	16
8	5449	652.94344547035	15
8	5454	652.958682224173	14
8	5459	653.037908928431	13
8	5471	654.454496879101	14
8	5473	654.884689737827	15
8	5475	658.50023560576	16
8	5477	659.84989125757	17
8	5479	662.824288868768	18
8	5481	662.920582244102	19
8	5496	667.171086777203	18
8	5501	667.33156479498	17
8	5510	667.619269698914	18
8	5515	668.874731739475	19
8	5522	672.398702344756	20
8	5567	681.903526370437	19
8	5587	684.492817823044	18
8	5594	686.281764604722	19
8	5601	699.033648015065	20
8	5606	699.631561730946	19
8	5611	699.728564178916	18
8	5631	702.47843369337	17
8	5638	702.745694668144	18
8	5648	704.181806735928	17
8	5662	707.922769325177	18
8	5702	711.049473781006	17
8	5745	711.979959340054	16
8	5754	712.342337060188	15
8	5767	712.908192069749	16
8	5769	714.115757768105	17
8	5796	719.576279675715	18
8	5816	722.650127822463	17
8	5853	725.979873204174	18
8	5875	728.50760404542	19
8	5885	729.006590039948	18
8	5890	729.067081086825	17
8	5899	729.492395128584	18
8	5912	730.038890205634	17
8	5922	730.568133166597	16
8	5927	730.663801321123	15
8	5939	732.523726323515	16
8	5941	733.958095582292	17
8	5946	734.416339008368	16
8	5963	738.632936621933	17
8	5965	740.856523965862	18
8	6010	757.456030760618	17
8	6022	757.742869684845	16
8	6035	758.245510997606	15
8	6060	759.404807487693	14
8	6070	759.952155429713	13
8	6077	760.467558614112	14
8	6079	760.545189224451	15
8	6089	760.803671344559	14
8	6096	762.49268725319	15
8	6101	762.925818453781	14
8	6108	762.976052653705	15
8	6115	763.307796795737	16
8	6122	767.836270996401	17
8	6134	768.63600077802	18
8	6144	769.366650752495	17
8	6161	770.061190502549	16
8	6169	770.203189896028	15
8	6179	770.414523582702	14
8	6206	771.717533874175	13
8	6221	773.440331260705	14
8	6228	773.825913111458	15
8	6245	775.379323190294	14
8	6260	776.203600536032	15
8	6285	780.246201476625	14
8	6302	781.558611613615	15
8	6316	783.51701487388	16
8	6326	784.972946076314	17
8	6331	785.751272876603	16
8	6348	793.568265990323	17
8	6350	794.453225115794	18
8	6352	795.021048030159	19
8	6427	811.704931515048	18
8	6444	816.413117305296	19
8	6454	818.870352086171	18
8	6461	819.63280016123	19
8	6471	820.629797257393	18
8	6488	824.186183807554	19
8	6490	825.969729406235	20
8	6495	827.659450262217	19
8	6507	828.109635507334	20
8	6542	829.704168038299	19
8	6547	829.725448007987	18
8	6562	830.889359174322	17
8	6569	831.006613330439	18
8	6591	832.130211627583	17
8	6596	832.190768980547	16
8	6609	832.416087108794	15
8	6616	833.06520774857	16
8	6618	833.315091071445	17
8	6620	833.538150499228	18
8	6627	834.602221910489	19
8	6652	838.427655037499	18
8	6657	838.438366050099	17
8	6666	838.523020330986	18
8	6668	838.678336243062	19
8	6671	838.759371048975	18
8	6681	839.057315725911	17
8	6691	839.219327752581	16
8	6703	839.715558654868	17
8	6727	841.189944507257	18
8	6737	841.51904595674	19
8	6777	847.80742702723	18
8	6782	847.846979005414	17
8	6789	848.514526837126	18
8	6831	860.780250071956	19
8	6836	861.157381819926	18
8	6841	861.269370281042	17
8	6863	864.823107242223	18
8	6875	869.197030045234	19
8	6880	869.611564739193	18
8	6892	871.105432635042	19
8	6897	871.852510582827	18
8	6904	873.824332989295	19
8	6989	884.200941190986	18
8	7003	886.913561355484	19
8	7071	892.214066173966	18
8	7086	892.958612883104	17
8	7131	897.202836316612	16
8	7146	901.966382068831	15
8	7156	902.305447979646	14
8	7173	906.71868623997	15
8	7198	908.545970251374	14
8	7207	908.752677513268	15
8	7220	910.74873206183	14
8	7230	911.059787827699	13
8	7237	911.856444132795	14
8	7246	912.373118422502	15
8	7256	918.895920127347	16
8	7258	919.54468830311	17
8	7260	922.943207054342	18
8	7262	925.412242207101	19
8	7267	926.054622121713	18
8	7287	929.904364883734	17
8	7327	931.462712226509	16
8	7354	934.666816040087	17
8	7379	942.058155119282	16
8	7386	942.338865019173	17
8	7398	945.305974466988	18
8	7415	949.866405173418	19
8	7422	951.151877683024	20
8	7537	972.195307203763	19
8	7612	976.202613954785	18
8	7627	976.641955016741	17
8	7637	976.979751406766	16
8	7644	977.568173012212	17
8	7654	979.102676254611	16
8	7676	980.369526522223	17
8	7681	981.299424772662	16
8	7691	982.548627977119	15
8	7696	982.587726617171	14
8	7706	983.754643815657	13
8	7713	983.839038466753	12
8	7733	984.9819866724	13
8	7737	985.162746214663	14
8	7747	986.600255926171	15
8	7752	986.946198588383	14
8	7772	987.807711302044	13
8	7784	988.757656206563	14
8	7786	988.896541895142	15
8	7788	988.962803753341	16
8	7813	993.303354286456	15
8	7825	993.718122726657	16
8	7839	995.383865405247	17
8	7844	996.827354737747	18
8	7854	1000.307999419907	17
8	7859	1000.399377171423	16
8	7889	1003.431938292275	15
8	7911	1006.434949617911	16
8	7923	1006.853444885835	17
8	7953	1010.183713662747	16
8	7958	1010.649179534688	15
8	7967	1010.75114106907	16
8	7970	1011.104147997398	15
8	7977	1012.923390615436	16
8	7999	1015.17551376823	17
8	8024	1018.534629585711	16
8	8053	1019.913424099721	15
8	8058	1020.185162588382	14
8	8084	1020.936546087937	13
8	8091	1022.148009923025	14
8	8096	1024.272367715764	13
8	8101	1024.286820698642	12
8	8106	1024.335226860619	11
8	8113	1024.686430997585	12
8	8125	1026.246985928828	13
8	8127	1026.463314331206	14
8	8147	1028.873848557004	13
8	8154	1031.092759023232	14
8	8156	1031.245384104783	15
8	8198	1035.856874489395	16
8	8200	1036.114010275376	17
8	8202	1036.366378177521	18
8	8207	1042.198447504233	17
8	8212	1042.433364108344	16
8	8234	1046.532823812621	17
8	8254	1049.623850650751	16
8	8259	1049.669307670912	15
8	8264	1049.684569647421	14
8	8304	1050.95501223647	13
8	8325	1051.246422960777	14
8	8346	1052.156415706396	13
8	8351	1052.184491746293	12
8	8371	1052.875455092639	11
8	8376	1052.897029126223	10
8	8393	1053.949446997053	11
8	8400	1054.347668917212	12
8	8419	1055.753092537613	13
8	8422	1055.784909841483	12
8	8427	1055.906083409486	11
8	8434	1055.99723717848	12
8	8446	1056.561185243704	13
8	8471	1057.977490200627	12
8	8478	1059.705669430932	13
8	8490	1063.27911218122	14
8	8497	1064.318511452125	15
8	8502	1064.427574060569	14
8	8513	1064.826111392006	15
8	8519	1064.904606107559	14
8	8525	1065.093590632564	15
8	8533	1065.404046514462	16
8	8538	1065.645445272818	15
8	8543	1065.683795042245	14
8	8558	1066.233694708975	13
8	8565	1066.725825671155	14
8	8577	1069.082111128142	15
8	8592	1069.473942804832	14
8	8599	1069.73299992486	15
8	8624	1072.057989681659	14
8	8633	1073.191192454729	15
8	8638	1073.492442794644	16
8	8643	1076.90037012293	15
8	8660	1077.231438294227	16
8	8662	1078.408535951959	17
8	8669	1078.738886781918	18
8	8676	1079.091903575879	19
8	8716	1085.738324268502	18
8	8728	1086.069494765165	17
8	8746	1087.07351874315	16
8	8773	1088.608025392018	17
8	8782	1089.161142947895	18
8	8794	1089.721966355953	17
8	8830	1091.046433247072	16
8	8845	1091.807587180598	15
8	8852	1092.320513039683	16
8	8856	1093.813639061272	17
8	8861	1094.439850158756	18
8	8863	1094.767776804663	19
8	8885	1098.573271055578	18
8	8903	1099.593637182498	17
8	8913	1100.704170712579	16
8	8933	1101.973124266492	15
8	8953	1102.592219293001	14
8	8963	1103.69877035714	13
8	8975	1107.111323403476	14
8	8980	1108.021288253198	13
8	8992	1109.000539960056	14
8	9026	1112.121994338333	15
8	9031	1112.360359033568	16
8	9041	1113.338051082035	15
8	9065	1114.580130896409	16
8	9074	1115.006937932851	17
8	9077	1115.034268977115	16
8	9105	1120.027196354645	15
8	9110	1120.062733806353	14
8	9120	1120.467102528817	13
8	9132	1120.862566392596	14
8	9137	1121.144517851607	13
8	9144	1122.260489390448	14
8	9146	1122.296196638379	15
8	9153	1122.520416907281	16
8	9183	1124.795991277224	15
8	9208	1125.913833372637	14
8	9218	1126.269065216627	13
8	9273	1127.897384902016	12
8	9287	1128.345219255614	13
8	9307	1129.342304748485	14
8	9314	1130.380155531556	15
8	9326	1131.93600467808	16
8	9331	1132.213195028713	15
8	9341	1132.523858985773	14
8	9345	1132.587458272701	15
8	9350	1132.869209078684	16
8	9360	1134.012250869296	15
8	9375	1134.426409100332	14
8	9380	1134.556038282129	13
8	9387	1134.955657501563	14
8	9389	1135.88532225691	15
8	9396	1136.758444445818	16
8	9433	1143.115024863141	17
8	9435	1143.660045388532	18
8	9440	1148.115628511392	17
8	9460	1148.382917436239	16
8	9472	1149.657519361981	17
8	9474	1149.720780032888	18
8	9476	1150.457593056939	19
8	9496	1154.989360443397	18
8	9506	1156.059839628584	17
8	9530	1158.399961771502	18
8	9535	1159.695111294177	19
8	9545	1160.841765108086	18
8	9560	1161.621471035409	17
8	9575	1162.358865831399	16
8	9594	1163.43702195898	17
8	9627	1164.516118915199	16
8	9632	1164.684301578043	15
8	9669	1167.167763451953	16
8	9690	1169.046160372873	17
8	9708	1172.470988494704	16
8	9726	1173.214505827314	15
8	9733	1175.95257786414	16
8	9755	1177.200217619667	15
8	9768	1177.338579942898	14