version 2
run Multitask30-11-20150106-11:37:58-3952
attr configname Multitask30
attr datetime 20150106-11:37:58
attr experiment Multitask30
attr inifile omnetpp.ini
attr iterationvars ""
attr iterationvars2 $repetition=11
attr measurement ""
attr network Multitask
attr processid 3952
attr repetition 11
attr replication #11
attr resultdir results
attr runnumber 11
attr seedset 11

vector 8  Multitask.allocateQ2  queueLength:vector  ETV
attr interpolationmode  sample-hold
attr title  "queue length, vector"
vector 11  Multitask.queue3  queueLength:vector  ETV
attr interpolationmode  sample-hold
attr title  "queue length, vector"
vector 13  Multitask.queue3  busy:vector  ETV
attr interpolationmode  sample-hold
attr title  "server busy state, vector"
vector 15  Multitask.queue4  queueLength:vector  ETV
attr interpolationmode  sample-hold
attr title  "queue length, vector"
vector 17  Multitask.queue4  busy:vector  ETV
attr interpolationmode  sample-hold
attr title  "server busy state, vector"
vector 19  Multitask.queue5  queueLength:vector  ETV
attr interpolationmode  sample-hold
attr title  "queue length, vector"
vector 21  Multitask.queue5  busy:vector  ETV
attr interpolationmode  sample-hold
attr title  "server busy state, vector"
vector 23  Multitask.queue6  queueLength:vector  ETV
attr interpolationmode  sample-hold
attr title  "queue length, vector"
vector 25  Multitask.queue6  busy:vector  ETV
attr interpolationmode  sample-hold
attr title  "server busy state, vector"
vector 27  Multitask.queue7  queueLength:vector  ETV
attr interpolationmode  sample-hold
attr title  "queue length, vector"
vector 29  Multitask.queue7  busy:vector  ETV
attr interpolationmode  sample-hold
attr title  "server busy state, vector"
vector 30  Multitask.resourceCPU  amount:vector  ETV
attr interpolationmode  sample-hold
attr title  "available resource, vector"
vector 12  Multitask.queue3  queueingTime:vector  ETV
attr interpolationmode  none
attr title  "queueing time at dequeue, vector"
attr unit  s
vector 20  Multitask.queue5  queueingTime:vector  ETV
attr interpolationmode  none
attr title  "queueing time at dequeue, vector"
attr unit  s
vector 24  Multitask.queue6  queueingTime:vector  ETV
attr interpolationmode  none
attr title  "queueing time at dequeue, vector"
attr unit  s
vector 28  Multitask.queue7  queueingTime:vector  ETV
attr interpolationmode  none
attr title  "queueing time at dequeue, vector"
attr unit  s
vector 16  Multitask.queue4  queueingTime:vector  ETV
attr interpolationmode  none
attr title  "queueing time at dequeue, vector"
attr unit  s
vector 9  Multitask.allocateQ2  queueingTime:vector  ETV
attr interpolationmode  none
attr title  "queueing time at dequeue, vector"
attr unit  s
vector 0  Multitask.sink  lifeTime:vector  ETV
attr interpolationmode  none
attr title  "lifetime of arrived jobs, vector"
attr unit  s
vector 1  Multitask.sink  totalQueueingTime:vector  ETV
attr interpolationmode  none
attr title  "the total time spent in queues by arrived jobs, vector"
attr unit  s
vector 4  Multitask.sink  queuesVisited:vector  ETV
attr interpolationmode  none
attr title  "the total number of queues visited by arrived jobs, vector"
vector 3  Multitask.sink  totalServiceTime:vector  ETV
attr interpolationmode  none
attr title  "the total time spent  by arrived jobs, vector"
attr unit  s
vector 2  Multitask.sink  totalDelayTime:vector  ETV
attr interpolationmode  none
attr title  "the total time spent in delay nodes by arrived jobs, vector"
attr unit  s
vector 5  Multitask.sink  delaysVisited:vector  ETV
attr interpolationmode  none
attr title  "the total number of delays visited by arrived jobs, vector"
vector 6  Multitask.sink  generation:vector  ETV
attr interpolationmode  none
attr title  "the generation of the arrived jobs, vector"
0	12754	1388.607695428035	1388.607695428
0	12781	1397.613673944233	1397.6136739442
0	12787	1397.681922775106	1397.6819227751
0	12793	1397.737016631859	1397.7370166319
0	12804	1399.441038252385	1399.4410382524
0	12824	1413.127502583369	1413.1275025834
0	12855	1422.694102352281	1422.6941023523
0	12916	1427.788011546341	1427.7880115463
0	12922	1427.933683820151	1427.9336838202
0	12943	1435.649550906894	1435.6495509069
0	12979	1436.659547258379	1436.6595472584
0	12995	1438.096433176209	1438.0964331762
0	13001	1438.15738099599	1438.157380996
0	13037	1450.022756615963	1450.022756616
0	13043	1450.096248548521	1450.0962485485
0	13049	1450.276263795752	1450.2762637958
0	13055	1450.348998413534	1450.3489984135
0	13076	1452.51554951014	1452.5155495101
0	13087	1452.85287260093	1452.8528726009
0	13108	1453.52612902847	1453.5261290285
0	13118	1453.814797099216	1453.8147970992
0	13195	1465.661132606846	1465.6611326068
0	13212	1472.185357477779	1472.1853574778
0	13229	1478.626853106079	1478.6268531061
0	13331	1511.631701793405	1511.6317017934
1	12754	1388.607695428035	1066.1450087956
1	12781	1397.613673944233	1081.4751381867
1	12787	1397.681922775106	1071.4436757344
1	12793	1397.737016631859	1130.2922528575
1	12804	1399.441038252385	1074.964832089
1	12824	1413.127502583369	1044.6006154867
1	12855	1422.694102352281	1071.5893980923
1	12916	1427.788011546341	1113.7492784661
1	12922	1427.933683820151	1059.0300874766
1	12943	1435.649550906894	1069.6205770804
1	12979	1436.659547258379	1188.8696129942
1	12995	1438.096433176209	1199.5875226466
1	13001	1438.15738099599	1135.0686503679
1	13037	1450.022756615963	1181.3675521448
1	13043	1450.096248548521	1107.081885485
1	13049	1450.276263795752	1097.8195699898
1	13055	1450.348998413534	1114.7521301731
1	13076	1452.51554951014	1159.4011129659
1	13087	1452.85287260093	1166.0033857507
1	13108	1453.52612902847	1118.300143007
1	13118	1453.814797099216	1110.1149072912
1	13195	1465.661132606846	1108.6345184795
1	13212	1472.185357477779	1137.5109527518
1	13229	1478.626853106079	1083.4303161852
1	13331	1511.631701793405	1150.9137278052
2	12754	1388.607695428035	0
2	12781	1397.613673944233	0
2	12787	1397.681922775106	0
2	12793	1397.737016631859	0
2	12804	1399.441038252385	0
2	12824	1413.127502583369	0
2	12855	1422.694102352281	0
2	12916	1427.788011546341	0
2	12922	1427.933683820151	0
2	12943	1435.649550906894	0
2	12979	1436.659547258379	0
2	12995	1438.096433176209	0
2	13001	1438.15738099599	0
2	13037	1450.022756615963	0
2	13043	1450.096248548521	0
2	13049	1450.276263795752	0
2	13055	1450.348998413534	0
2	13076	1452.51554951014	0
2	13087	1452.85287260093	0
2	13108	1453.52612902847	0
2	13118	1453.814797099216	0
2	13195	1465.661132606846	0
2	13212	1472.185357477779	0
2	13229	1478.626853106079	0
2	13331	1511.631701793405	0
3	12754	1388.607695428035	90.595947395923
3	12781	1397.613673944233	103.63350487979
3	12787	1397.681922775106	72.158975417215
3	12793	1397.737016631859	151.74998902192
3	12804	1399.441038252385	166.93250366309
3	12824	1413.127502583369	223.93382234547
3	12855	1422.694102352281	63.807802794352
3	12916	1427.788011546341	110.72366888509
3	12922	1427.933683820151	109.02684111662
3	12943	1435.649550906894	129.03671690858
3	12979	1436.659547258379	61.158658703666
3	12995	1438.096433176209	89.567360436564
3	13001	1438.15738099599	105.54943477377
3	13037	1450.022756615963	59.403482988795
3	13043	1450.096248548521	120.93482089431
3	13049	1450.276263795752	123.46250483407
3	13055	1450.348998413534	166.1576443329
3	13076	1452.51554951014	111.12368680356
3	13087	1452.85287260093	98.009230378708
3	13108	1453.52612902847	113.80562471904
3	13118	1453.814797099216	136.37191547801
3	13195	1465.661132606846	110.19662179468
3	13212	1472.185357477779	105.49205070151
3	13229	1478.626853106079	127.45266796534
3	13331	1511.631701793405	125.43901455925
4	12754	1388.607695428035	50
4	12781	1397.613673944233	42
4	12787	1397.681922775106	53
4	12793	1397.737016631859	48
4	12804	1399.441038252385	63
4	12824	1413.127502583369	77
4	12855	1422.694102352281	25
4	12916	1427.788011546341	42
4	12922	1427.933683820151	50
4	12943	1435.649550906894	43
4	12979	1436.659547258379	42
4	12995	1438.096433176209	56
4	13001	1438.15738099599	33
4	13037	1450.022756615963	41
4	13043	1450.096248548521	41
4	13049	1450.276263795752	44
4	13055	1450.348998413534	49
4	13076	1452.51554951014	52
4	13087	1452.85287260093	43
4	13108	1453.52612902847	43
4	13118	1453.814797099216	52
4	13195	1465.661132606846	34
4	13212	1472.185357477779	46
4	13229	1478.626853106079	48
4	13331	1511.631701793405	37
5	12754	1388.607695428035	0
5	12781	1397.613673944233	0
5	12787	1397.681922775106	0
5	12793	1397.737016631859	0
5	12804	1399.441038252385	0
5	12824	1413.127502583369	0
5	12855	1422.694102352281	0
5	12916	1427.788011546341	0
5	12922	1427.933683820151	0
5	12943	1435.649550906894	0
5	12979	1436.659547258379	0
5	12995	1438.096433176209	0
5	13001	1438.15738099599	0
5	13037	1450.022756615963	0
5	13043	1450.096248548521	0
5	13049	1450.276263795752	0
5	13055	1450.348998413534	0
5	13076	1452.51554951014	0
5	13087	1452.85287260093	0
5	13108	1453.52612902847	0
5	13118	1453.814797099216	0
5	13195	1465.661132606846	0
5	13212	1472.185357477779	0
5	13229	1478.626853106079	0
5	13331	1511.631701793405	0
6	12754	1388.607695428035	0
6	12781	1397.613673944233	0
6	12787	1397.681922775106	0
6	12793	1397.737016631859	0
6	12804	1399.441038252385	0
6	12824	1413.127502583369	0
6	12855	1422.694102352281	0
6	12916	1427.788011546341	0
6	12922	1427.933683820151	0
6	12943	1435.649550906894	0
6	12979	1436.659547258379	0
6	12995	1438.096433176209	0
6	13001	1438.15738099599	0
6	13037	1450.022756615963	0
6	13043	1450.096248548521	0
6	13049	1450.276263795752	0
6	13055	1450.348998413534	0
6	13076	1452.51554951014	0
6	13087	1452.85287260093	0
6	13108	1453.52612902847	0
6	13118	1453.814797099216	0
6	13195	1465.661132606846	0
6	13212	1472.185357477779	0
6	13229	1478.626853106079	0
6	13331	1511.631701793405	0
8	0	0	0
8	134	2.558123142647	1
8	164	5.016721660372	0
8	192	6.221642114505	1
8	196	6.644180440988	2
8	201	6.682040723016	3
8	211	7.200617299262	4
8	213	7.276963985317	5
8	215	7.296006684169	6
8	232	10.927902239679	7
8	234	11.533362130627	8
8	248	12.509314144624	9
8	253	12.907439386037	10
8	257	13.092017206218	11
8	270	13.783770778414	10
8	280	14.136094251114	9
8	287	14.343419129427	10
8	289	15.353351935135	11
8	304	16.640349564141	10
8	308	16.724648216041	11
8	321	16.856277323996	10
8	333	17.497427729427	11
8	354	19.024346530277	12
8	360	19.083310851213	11
8	367	22.04625611671	12
8	369	22.434125061577	13
8	371	22.666461939768	14
8	386	23.454297244812	13
8	431	25.360001231381	12
8	450	26.075212987799	13
8	455	26.909929089377	14
8	467	28.439842203271	15
8	474	31.112845876374	16
8	481	32.478913417385	17
8	505	35.699892407836	18
8	552	38.85164797708	19
8	570	43.505446499647	18
8	575	43.575861886707	17
8	592	45.141457985348	18
8	594	46.477111988819	19
8	599	50.586539263357	18
8	614	51.055773080521	17
8	624	51.663580518617	16
8	631	51.984540741166	17
8	636	53.064006033236	16
8	643	53.079494392033	17
8	645	53.706930385845	18
8	660	54.951681498041	17
8	665	54.995660770792	16
8	672	55.506291895338	17
8	697	57.791930868375	16
8	714	63.445773826445	17
8	726	64.514071194015	18
8	736	66.046304523167	17
8	741	66.139516165981	16
8	773	69.600065718566	17
8	803	71.143695226409	16
8	808	71.31336427667	15
8	827	71.911490609865	16
8	855	73.245987333582	15
8	864	73.652403108252	16
8	898	75.604464443993	17
8	911	77.935398419315	18
8	996	85.022994659187	17
8	1003	88.19409908298	18
8	1005	89.158297061515	19
8	1012	91.461778250849	20
8	1042	92.909115441317	19
8	1054	95.285359072697	20
8	1069	96.407393848882	19
8	1084	96.919391754511	18
8	1094	99.812592760887	17
8	1101	100.825898160572	18
8	1135	107.507879792849	19
8	1194	111.318599254621	18
8	1202	111.46564873798	17
8	1210	111.714142892615	16
8	1230	113.297456293903	15
8	1280	114.683069280273	14
8	1287	114.755820399596	15
8	1302	115.142432907373	16
8	1307	115.336653261589	15
8	1334	120.679293220944	16
8	1341	126.619863675419	17
8	1343	127.469098246676	18
8	1355	128.675673983882	19
8	1375	133.878457462277	18
8	1400	135.316094146406	17
8	1430	137.461273558772	16
8	1440	138.605022031385	15
8	1452	139.577452096378	16
8	1454	139.89145480798	17
8	1469	141.502131392419	16
8	1486	142.600419151158	17
8	1491	142.864062177152	16
8	1506	143.730478968979	15
8	1511	143.937903937877	14
8	1538	149.149853026398	15
8	1540	149.312700606624	16
8	1547	152.499733968648	17
8	1549	153.093563858972	18
8	1558	153.916603281489	19
8	1571	157.837425253413	18
8	1583	160.294448616155	19
8	1590	161.283274737075	20
8	1597	161.640683343668	19
8	1617	163.412838611347	20
8	1647	165.287452221932	19
8	1651	165.354906647804	20
8	1684	171.209662461254	19
8	1719	176.585335122369	18
8	1724	176.618097085175	17
8	1739	177.917205638157	16
8	1744	178.195247890226	15
8	1754	179.009325409788	14
8	1761	179.455239226704	15
8	1763	179.872838681854	16
8	1780	182.999824841344	17
8	1782	183.353802863868	18
8	1787	183.878600713329	17
8	1811	185.609983552937	18
8	1816	185.779847069435	17
8	1824	185.844771824481	16
8	1829	186.002731745147	15
8	1833	186.037730420429	16
8	1840	186.358554843755	17
8	1863	188.287055328195	16
8	1870	188.838250850659	17
8	1887	190.543014183583	18
8	1902	191.873686825515	17
8	1914	192.937551904252	18
8	1919	193.119451250948	17
8	1926	193.396937323606	18
8	1928	193.858051690479	19
8	1968	202.293725437735	18
8	1993	203.141129502878	17
8	2023	204.774283593677	16
8	2038	205.091483942178	15
8	2045	205.503284658881	16
8	2049	206.117587654231	17
8	2077	208.795278555293	16
8	2102	209.457484913236	15
8	2129	213.625425498123	16
8	2134	214.149593525549	15
8	2138	214.244574246855	16
8	2151	215.181087165123	15
8	2166	215.97868228971	14
8	2176	216.293007056615	13
8	2188	216.584546925132	14
8	2193	216.848637274234	13
8	2212	218.249446925004	14
8	2242	220.701718197507	15
8	2244	221.0059033253	16
8	2246	221.047999397566	17
8	2288	222.67781659239	18
8	2295	223.030546220134	17
8	2310	223.57296071105	18
8	2315	224.52353377734	17
8	2335	226.529913522512	16
8	2342	226.819660576901	17
8	2344	227.595764540233	18
8	2349	228.900761136828	17
8	2359	229.612817587647	16
8	2366	232.205805355814	17
8	2375	233.665428015181	18
8	2380	234.008070908005	19
8	2415	239.678725220893	18
8	2430	240.598487965038	17
8	2452	242.50240784975	16
8	2457	242.796281318223	15
8	2470	242.915058587006	14
8	2479	243.086819406446	15
8	2486	243.639712501467	16
8	2496	244.05996591767	17
8	2501	246.228949776179	16
8	2516	246.612745450991	15
8	2523	246.933469583487	16
8	2535	248.321304617589	17
8	2547	249.928821455329	18
8	2559	251.158608344003	19
8	2569	252.330382618157	18
8	2576	252.413536406526	19
8	2578	252.459460167006	20
8	2583	252.704737182236	19
8	2643	259.069977423265	18
8	2648	259.292051804156	17
8	2682	261.892237244299	18
8	2720	265.451035872557	17
8	2725	265.5702888014	16
8	2735	266.15975680475	15
8	2757	270.165867219133	16
8	2759	270.4257648683	17
8	2789	274.151513397419	16
8	2801	278.309157541138	17
8	2803	278.319109651172	18
8	2808	278.787511956748	17
8	2815	279.285142776829	18
8	2817	281.069443459557	19
8	2842	283.293844500658	18
8	2869	284.667060883006	19
8	2871	286.966186746458	20
8	2886	292.444504779912	19
8	2898	294.745267958168	20
8	2918	297.215743186415	19
8	2933	298.139163815137	18
8	2938	298.149234948792	17
8	2948	298.447980262562	16
8	2958	298.7895827393	15
8	2963	298.790562330367	14
8	2975	299.102975288095	13
8	2993	300.713163752078	12
8	3000	300.922224483316	13
8	3002	301.649512751129	14
8	3029	304.507000423045	13
8	3039	304.821911910508	14
8	3044	305.207883112874	13
8	3064	306.903680588726	12
8	3086	308.698157444539	13
8	3098	311.529094278958	14
8	3100	311.746432576431	15
8	3102	311.993472340612	16
8	3107	312.463498846344	15
8	3112	312.553075778817	14
8	3119	312.757068685548	15
8	3138	314.233757942742	16
8	3143	314.340286207853	17
8	3185	318.679974290788	16
8	3190	318.700383479847	15
8	3202	319.008079832674	14
8	3207	319.226727006942	13
8	3212	319.238647432758	12
8	3219	319.417483894285	13
8	3235	320.840708127769	12
8	3240	320.976629854233	11
8	3247	321.789231022752	12
8	3267	322.902129559946	11
8	3274	322.971550123573	12
8	3286	324.535273287765	13
8	3288	324.944941495361	14
8	3295	325.438794139261	15
8	3307	330.604344486353	16
8	3349	333.970446147632	17
8	3361	337.666004422602	18
8	3363	343.522721018575	19
8	3365	348.806325518482	20
8	3470	370.685054403897	19
8	3505	378.507813533353	18
8	3555	381.225126253913	17
8	3565	381.509660778998	16
8	3570	381.674990685756	15
8	3580	382.342924838051	14
8	3600	383.110538028086	13
8	3640	383.940208577046	12
8	3687	387.442222080431	13
8	3689	389.716956114365	14
8	3691	389.730411540688	15
8	3748	394.250280245403	16
8	3762	394.477635224473	17
8	3777	397.767279885048	18
8	3797	400.554391097351	17
8	3839	404.846438599117	18
8	3874	414.565509051922	17
8	3889	415.050209307952	16
8	3909	416.226491869758	15
8	3919	416.85264920616	14
8	3924	416.884728644946	13
8	3934	417.616228722367	12
8	3966	421.622396390146	13
8	3977	423.481801364493	14
8	4005	424.627622548646	13
8	4010	424.66185286073	12
8	4024	425.738675201655	13
8	4034	426.202775680953	14
8	4044	427.929209039122	15
8	4049	429.098241521845	14
8	4059	429.299330955857	13
8	4086	430.183855352456	14
8	4103	430.697036470955	15
8	4108	430.871381909215	14
8	4113	430.910669333193	13
8	4128	431.815774935004	12
8	4133	431.821209117294	11
8	4163	432.573316618837	10
8	4185	436.544887468978	11
8	4207	437.807094190064	12
8	4212	437.915865968277	11
8	4219	437.942586869863	10
8	4234	438.171902197742	11
8	4241	438.761083987574	12
8	4260	439.617612688927	13
8	4278	444.181405673035	12
8	4285	444.454545250655	13
8	4289	444.586319676544	14
8	4301	444.986060839677	15
8	4304	445.16383362656	14
8	4314	445.543851495928	13
8	4326	448.079694998262	14
8	4343	449.123165598616	15
8	4345	449.868860908375	16
8	4347	450.07769347245	17
8	4352	451.050742413412	16
8	4359	452.358168222774	17
8	4386	463.192449988932	18
8	4428	472.394651675304	19
8	4460	479.730579830149	20
8	4480	483.080876884481	19
8	4530	487.028859684854	18
8	4557	488.273591115615	17
8	4572	488.789175416224	18
8	4587	489.600034942612	17
8	4602	490.263669572699	16
8	4629	493.841421473414	17
8	4631	493.862920532499	18
8	4653	495.963287846594	19
8	4693	500.890120334004	18
8	4713	502.653239963691	17
8	4718	502.678139860811	16
8	4740	506.153554476916	17
8	4742	507.241215875565	18
8	4746	507.848510370966	19
8	4754	508.215006055834	18
8	4766	512.8525412421	19
8	4768	514.6247858121	20
8	4828	517.701847331991	19
8	4838	519.865426386278	18
8	4843	519.868445718904	17
8	4853	520.092650120591	16
8	4870	523.625405170428	17
8	4874	523.82867261279	18
8	4887	524.668372555061	17
8	4979	532.051479200419	18
8	4989	534.391109970647	17
8	5001	535.267729140242	18
8	5041	540.983687095236	17
8	5095	545.390174681577	18
8	5115	546.340199043583	19
8	5155	551.04428247304	18
8	5170	552.262728626375	17
8	5175	552.319672784613	16
8	5182	552.554518528971	17
8	5192	553.766924243022	16
8	5212	554.741083044612	15
8	5224	555.916310221191	16
8	5226	556.144819312378	17
8	5236	558.462416949421	16
8	5243	558.700435993208	17
8	5248	559.684567685999	16
8	5258	559.797815459592	15
8	5263	559.905941204821	14
8	5268	559.923046654675	13
8	5280	560.435726631613	14
8	5292	561.293943620835	13
8	5297	561.411514481597	12
8	5305	561.4421637182	11
8	5319	561.584602896207	12
8	5336	563.208489068177	13
8	5361	564.418545830955	12
8	5376	565.178425614349	13
8	5381	566.966211886535	12
8	5388	567.313844097527	13
8	5390	569.433564694578	14
8	5392	569.921182063548	15
8	5397	570.538460217096	14
8	5409	573.650119004007	15
8	5414	574.007416102313	14
8	5421	574.26637530727	15
8	5426	574.524456981789	14
8	5431	574.552076424933	13
8	5448	575.940986208781	14
8	5450	577.206601427382	15
8	5452	579.407125651722	16
8	5454	580.303981358437	17
8	5481	584.527966740004	18
8	5496	586.318107328157	17
8	5501	586.668821292704	16
8	5508	587.151425105777	17
8	5518	587.562124289143	16
8	5533	589.849754974727	15
8	5542	590.316836853119	16
8	5562	591.481235537057	17
8	5572	592.664204441127	16
8	5584	593.599847871112	17
8	5586	594.068265680012	18
8	5593	596.727144130473	19
8	5613	597.297131212949	18
8	5627	598.493924660231	19
8	5640	600.21148562373	18
8	5645	600.243873864645	17
8	5662	601.278680982037	18
8	5687	602.214604656529	17
8	5691	602.416712862558	18
8	5696	602.936373922948	19
8	5716	604.935967177494	18
8	5766	613.990900713226	17
8	5771	614.006246247796	16
8	5775	614.188644058441	17
8	5778	614.246716100106	16
8	5783	614.381757862858	15
8	5835	616.961612487625	16
8	5842	618.54169761559	17
8	5844	619.048438417822	18
8	5849	634.361451760664	17
8	5881	640.814861270122	18
8	5883	645.235183193026	19
8	5908	648.702682735612	18
8	5923	649.89236422755	17
8	5930	649.930550675586	16
8	5935	650.052368097556	15
8	5945	650.629647364574	16
8	5967	656.190412178338	17
8	5969	656.297431408666	18
8	5974	656.883697193194	17
8	5984	657.372682078488	16
8	5989	657.472558988948	15
8	5995	657.588501718369	16
8	5998	657.903223427692	15
8	6008	658.469878889816	16
8	6038	662.936222384885	15
8	6048	663.253019439962	14
8	6053	663.312488083514	13
8	6070	664.977035873662	14
8	6077	666.020489710426	15
8	6104	669.553954856375	16
8	6109	671.311517778426	15
8	6119	671.440519839917	14
8	6126	671.603964707071	15
8	6128	672.677729618063	16
8	6140	678.16330629777	17
8	6150	679.436467824469	16
8	6162	681.1939378724	17
8	6167	681.479904567496	16
8	6176	681.810837170232	17
8	6181	682.646291500317	18
8	6188	683.438677757571	19
8	6190	684.01265326657	20
8	6200	685.802348577888	19
8	6207	686.188306631588	20
8	6212	686.5034690838	19
8	6237	687.071084213283	18
8	6267	690.230847471309	17
8	6297	691.664519584874	16
8	6304	691.849473899672	17
8	6361	695.096117762995	18
8	6366	696.011742716475	17
8	6370	696.12810209416	18
8	6388	696.791607649393	17
8	6422	697.847598362122	18
8	6430	699.565338051106	17
8	6447	700.588532157967	18
8	6467	702.659432178681	17
8	6477	703.072152405816	16
8	6519	704.917683954384	17
8	6544	708.774088392426	16
8	6549	708.782816282913	15
8	6558	708.954058482002	16
8	6601	712.494215418154	15
8	6613	713.243582871842	16
8	6623	714.31109746394	15
8	6648	717.280296590601	14
8	6653	717.320119616043	13
8	6670	720.261455020682	14
8	6695	723.631635132846	13
8	6705	723.85183687104	12
8	6724	724.779934110738	13
8	6726	724.783633978009	14
8	6736	725.405131196448	15
8	6738	725.49203530113	16
8	6740	727.607957059777	17
8	6742	728.605572289396	18
8	6747	729.260876934232	17
8	6754	730.416920116172	18
8	6759	730.666004337628	17
8	6769	731.984320006677	16
8	6776	733.089593513032	17
8	6821	738.553952871557	16
8	6828	741.047739038297	17
8	6870	746.537165723213	18
8	6892	747.680237967822	19
8	6917	753.034347488854	18
8	6932	756.990062983608	17
8	6964	759.227748752612	18
8	6984	762.263652621134	17
8	7011	767.14780599402	18
8	7031	769.97335556295	17
8	7041	770.513051373301	16
8	7048	771.783024946237	17
8	7050	772.94837347978	18
8	7055	773.832159583885	17
8	7072	777.523878722679	18
8	7082	779.225403263147	17
8	7132	784.837672324028	16
8	7137	784.9113094765	15
8	7147	786.329738756445	14
8	7169	788.475854482859	15
8	7171	789.103033127636	16
8	7201	798.986560363685	15
8	7261	801.858356631384	14
8	7273	803.34515016349	15
8	7293	805.550398331802	14
8	7357	809.397516996809	15
8	7364	809.600048426427	16
8	7367	809.637413136017	15
8	7376	810.138143290796	16
8	7379	810.251746603431	15
8	7384	810.418211218516	14
8	7396	812.766840983752	15
8	7401	813.704361161938	14
8	7408	814.290303979497	15
8	7410	814.649268020871	16
8	7412	814.692185337595	17
8	7422	815.280142225154	16
8	7427	815.325484828252	15
8	7434	815.670445881075	16
8	7436	815.71415104707	17
8	7438	821.492163289057	18
8	7463	826.980077128261	17
8	7470	827.10996936469	18
8	7475	827.135409999145	17
8	7510	833.997774487187	16
8	7552	839.484035339456	17
8	7569	843.692757103759	18
8	7574	848.031989206234	17
8	7601	852.769691667216	18
8	7606	854.027437412346	17
8	7618	855.158080707577	18
8	7623	856.538094874626	17
8	7628	856.804210655175	16
8	7640	858.042095872879	17
8	7680	863.808319726207	16
8	7685	863.904059842031	15
8	7690	864.087214015543	14
8	7717	865.885553626288	15
8	7744	867.581683836317	16
8	7746	867.645690772427	17
8	7803	875.42959621385	18
8	7805	875.46081658117	19
8	7860	877.28059197901	18
8	7890	881.910617886866	17
8	7895	881.949551242179	16
8	7899	881.95119308927	17
8	7907	882.958443956255	16
8	7912	883.102538256197	15
8	7922	883.635753511847	14
8	7926	883.652086183546	15
8	7944	885.875656154784	14
8	7959	886.534891180422	13
8	7964	886.568308685141	12
8	7988	887.022480578783	13
8	8021	889.644242501446	12
8	8028	889.747889232295	13
8	8040	891.837370481674	14
8	8047	892.35986020476	15
8	8049	892.516092015202	16
8	8056	893.803358952285	17
8	8073	894.621019631743	18
8	8093	895.734792813797	17
8	8108	897.259696515641	16
8	8113	897.423269951255	15
8	8123	897.856653708136	14
8	8140	900.398248410406	15
8	8157	903.857092516716	16
8	8166	909.791968801935	17
8	8171	909.951668871626	18
8	8191	913.176616523573	17
8	8195	913.313145054913	18
8	8203	913.437412395557	17
8	8213	914.634907245375	16
8	8228	916.933492952966	15
8	8233	917.174598975421	14
8	8240	917.981223247158	15
8	8250	919.613988890126	14
8	8254	919.681753808905	15
8	8264	921.765234276642	16
8	8266	923.262934814231	17
8	8283	929.679459241614	18
8	8285	929.931117049208	19
8	8295	932.543439637958	18
8	8320	932.962541066455	17
8	8325	933.002598255922	16
8	8355	935.969951391709	15
8	8360	936.050590855853	14
8	8372	939.143177343436	15
8	8387	941.387852516342	14
8	8392	941.424944874363	13
8	8402	941.553422372205	12
8	8414	943.945701679265	13
8	8416	945.3002512516	14
8	8418	945.558408447796	15
8	8420	945.572971628801	16
8	8430	946.480580486412	15
8	8437	946.503170535544	14
8	8455	947.521602747804	13
8	8462	947.871021458856	14
8	8472	948.990677493485	13
8	8479	949.429399894762	14
8	8489	950.181721185817	13
8	8496	950.467429902388	14
8	8498	950.863892446582	15
8	8505	951.33452162836	16
8	8507	951.436248606926	17
8	8517	951.959933480411	16
8	8524	952.2941797359	17
8	8546	953.397716842455	18
8	8578	956.036274906197	17
8	8586	956.093430150989	16
8	8591	956.196762408012	15
8	8601	956.417149493024	14
8	8605	956.597799534394	15
8	8610	956.881893003736	16
8	8630	957.815212797709	15
8	8634	957.828713041818	16
8	8641	958.527634924593	17
8	8644	958.592747759161	16
8	8691	962.759354355514	17
8	8703	964.436379735234	18
8	8738	968.887461811005	17
8	8748	969.795019031484	16
8	8763	969.997486814557	15
8	8770	970.02793642868	14
8	8783	970.688625112602	13
8	8795	972.580471771609	14
8	8797	972.889658036311	15
8	8799	973.452782896022	16
8	8804	974.006409709614	15
8	8814	974.247073588963	14
8	8826	974.847194294866	15
8	8828	978.808670677945	16
8	8830	980.529600274082	17
8	8832	980.776465450961	18
8	8872	985.14269491409	17
8	8884	988.211304986386	18
8	8886	988.621512508719	19
8	8888	989.911481103969	20
8	8920	1000.653382293023	19
8	8927	1000.701987413867	18
8	8958	1007.65171939692	17
8	8963	1007.75245715815	16
8	8998	1013.229847578807	15
8	9003	1013.253052066269	14
8	9015	1013.507554759469	15
8	9017	1013.74788417085	16
8	9019	1013.924331542928	17
8	9024	1014.400403795624	16
8	9046	1015.766311644457	17
8	9051	1016.024243371997	16
8	9060	1016.337261152764	17
8	9078	1017.433549822158	16
8	9100	1019.345535770795	17
8	9102	1020.012354102692	18
8	9117	1021.183367268598	17
8	9124	1021.599904667147	18
8	9139	1022.785401207425	17
8	9149	1022.85018214804	16
8	9176	1025.161291475428	17
8	9183	1027.924868955748	18
8	9213	1029.219311984938	17
8	9228	1029.948036423441	16
8	9242	1031.977542289631	17
8	9245	1031.977653365471	16
8	9250	1032.252964806414	15
8	9257	1033.330104495829	16
8	9259	1034.22004655078	17
8	9271	1036.430377548516	18
8	9331	1041.437178607603	17
8	9337	1041.703369378924	18
8	9348	1042.127231458242	17
8	9369	1042.725241057352	18
8	9387	1047.694824888105	19
8	9392	1048.954904474946	18
8	9396	1049.098816271412	19
8	9399	1049.114108548124	18
8	9414	1050.961988311877	17
8	9436	1053.459430008113	18
8	9438	1053.544973529367	19
8	9463	1057.004932205162	18
8	9473	1057.620692121137	17
8	9485	1060.868396511216	18
8	9490	1062.029610520888	17
8	9512	1064.57768143525	18
8	9519	1064.842054355239	17
8	9526	1065.053200905282	18
8	9529	1065.305424149928	17
8	9539	1065.416323472296	16
8	9556	1067.449844061931	17
8	9558	1068.467436559589	18
8	9578	1072.647265255256	17
8	9585	1079.306797286088	18
8	9610	1086.621446457982	17
8	9617	1086.815366764892	18
8	9622	1086.998722563113	17
8	9627	1087.104409214058	16
8	9637	1087.714561384801	15
8	9642	1087.77303416269	14
8	9649	1088.916731918929	15
8	9656	1089.9609845937	16
8	9658	1090.207866519639	17
8	9663	1096.324502602694	16
8	9680	1097.680940069774	17
8	9692	1098.107368556118	18
8	9709	1098.380151507139	17
8	9716	1098.411593140118	18
8	9719	1098.51231973463	17
8	9730	1098.750549006497	16
8	9737	1098.794612400057	17
8	9758	1100.404722732551	18
8	9763	1100.721380788398	17
8	9778	1102.801913458053	16
8	9798	1105.845800211841	15
8	9805	1106.485609248624	16
8	9820	1109.264470685263	15
8	9835	1110.184839893801	14
8	9857	1110.994192174999	15
8	9874	1112.864192199347	16
8	9888	1120.120913923921	17
8	9896	1120.511820757424	16
8	9903	1120.602130003718	15
8	9913	1120.832587917488	14
8	9918	1120.851326851619	13
8	9975	1123.532070512672	14
8	9978	1123.601604239094	13
8	9990	1124.253571695443	14
8	9997	1124.516842358188	13
8	10001	1124.561442376764	14
8	10042	1125.502889296326	13
8	10062	1128.003316322172	12
8	10069	1128.111584728191	13
8	10094	1129.94348751559	12
8	10099	1129.953655262291	11
8	10103	1130.03776893905	12
8	10108	1130.833008281411	13
8	10130	1132.135740085827	12
8	10140	1132.413917328677	11
8	10163	1133.384575962389	10
8	10168	1133.609602217908	9
8	10185	1134.810858364743	10
8	10190	1135.551931848282	9
8	10197	1136.462900183514	10
8	10199	1139.339873752053	11
8	10201	1139.665508809812	12
8	10213	1140.816657916628	13
8	10223	1141.892815135438	12
8	10228	1141.910655966118	11
8	10240	1143.76367970693	12
8	10260	1145.544172796059	11
8	10264	1145.769070628407	12
8	10269	1148.662966037224	13
8	10274	1149.268742589279	12
8	10284	1149.45406462847	11
8	10289	1149.501912610644	10
8	10294	1149.50359438771	9
8	10298	1149.556501432422	10
8	10308	1149.873581811338	11
8	10310	1150.047555397424	12
8	10312	1150.840364419028	13