version 2
run Multitask30-2-20150106-11:37:57-5068
attr configname Multitask30
attr datetime 20150106-11:37:57
attr experiment Multitask30
attr inifile omnetpp.ini
attr iterationvars ""
attr iterationvars2 $repetition=2
attr measurement ""
attr network Multitask
attr processid 5068
attr repetition 2
attr replication #2
attr resultdir results
attr runnumber 2
attr seedset 2

vector 8  Multitask.allocateQ2  queueLength:vector  ETV
attr interpolationmode  sample-hold
attr title  "queue length, vector"
vector 11  Multitask.queue3  queueLength:vector  ETV
attr interpolationmode  sample-hold
attr title  "queue length, vector"
vector 13  Multitask.queue3  busy:vector  ETV
attr interpolationmode  sample-hold
attr title  "server busy state, vector"
vector 15  Multitask.queue4  queueLength:vector  ETV
attr interpolationmode  sample-hold
attr title  "queue length, vector"
vector 17  Multitask.queue4  busy:vector  ETV
attr interpolationmode  sample-hold
attr title  "server busy state, vector"
vector 19  Multitask.queue5  queueLength:vector  ETV
attr interpolationmode  sample-hold
attr title  "queue length, vector"
vector 21  Multitask.queue5  busy:vector  ETV
attr interpolationmode  sample-hold
attr title  "server busy state, vector"
vector 23  Multitask.queue6  queueLength:vector  ETV
attr interpolationmode  sample-hold
attr title  "queue length, vector"
vector 25  Multitask.queue6  busy:vector  ETV
attr interpolationmode  sample-hold
attr title  "server busy state, vector"
vector 27  Multitask.queue7  queueLength:vector  ETV
attr interpolationmode  sample-hold
attr title  "queue length, vector"
vector 29  Multitask.queue7  busy:vector  ETV
attr interpolationmode  sample-hold
attr title  "server busy state, vector"
vector 30  Multitask.resourceCPU  amount:vector  ETV
attr interpolationmode  sample-hold
attr title  "available resource, vector"
vector 12  Multitask.queue3  queueingTime:vector  ETV
attr interpolationmode  none
attr title  "queueing time at dequeue, vector"
attr unit  s
vector 20  Multitask.queue5  queueingTime:vector  ETV
attr interpolationmode  none
attr title  "queueing time at dequeue, vector"
attr unit  s
vector 24  Multitask.queue6  queueingTime:vector  ETV
attr interpolationmode  none
attr title  "queueing time at dequeue, vector"
attr unit  s
vector 28  Multitask.queue7  queueingTime:vector  ETV
attr interpolationmode  none
attr title  "queueing time at dequeue, vector"
attr unit  s
vector 16  Multitask.queue4  queueingTime:vector  ETV
attr interpolationmode  none
attr title  "queueing time at dequeue, vector"
attr unit  s
vector 9  Multitask.allocateQ2  queueingTime:vector  ETV
attr interpolationmode  none
attr title  "queueing time at dequeue, vector"
attr unit  s
vector 0  Multitask.sink  lifeTime:vector  ETV
attr interpolationmode  none
attr title  "lifetime of arrived jobs, vector"
attr unit  s
vector 1  Multitask.sink  totalQueueingTime:vector  ETV
attr interpolationmode  none
attr title  "the total time spent in queues by arrived jobs, vector"
attr unit  s
vector 4  Multitask.sink  queuesVisited:vector  ETV
attr interpolationmode  none
attr title  "the total number of queues visited by arrived jobs, vector"
vector 3  Multitask.sink  totalServiceTime:vector  ETV
attr interpolationmode  none
attr title  "the total time spent  by arrived jobs, vector"
attr unit  s
vector 2  Multitask.sink  totalDelayTime:vector  ETV
attr interpolationmode  none
attr title  "the total time spent in delay nodes by arrived jobs, vector"
attr unit  s
vector 5  Multitask.sink  delaysVisited:vector  ETV
attr interpolationmode  none
attr title  "the total number of delays visited by arrived jobs, vector"
vector 6  Multitask.sink  generation:vector  ETV
attr interpolationmode  none
attr title  "the generation of the arrived jobs, vector"
0	13675	1742.559197399772	1742.5591973998
0	13711	1745.554149854776	1745.5541498548
0	13779	1757.60742966561	1757.6074296656
0	13852	1766.31583840269	1766.3158384027
0	13868	1770.118886937233	1770.1188869372
0	13884	1772.187141872387	1772.1871418724
0	13895	1772.56399915428	1772.5639991543
0	13936	1793.561213450696	1793.5612134507
0	13962	1796.078617816979	1796.078617817
0	14033	1804.618771573996	1804.618771574
0	14056	1805.422584678801	1805.4225846788
0	14080	1806.030356330322	1806.0303563303
0	14115	1807.035854631244	1807.0358546312
0	14121	1807.077826566243	1807.0778265662
0	14138	1807.259934983508	1807.2599349835
0	14209	1820.790029840572	1820.7900298406
0	14220	1822.586782820247	1822.5867828202
0	14226	1822.707145955671	1822.7071459557
0	14237	1822.714876995209	1822.7148769952
0	14250	1822.924162862841	1822.9241628628
0	14328	1829.528467967158	1829.5284679672
0	14350	1832.379508149749	1832.3795081497
0	14357	1833.18373117134	1833.1837311713
0	14379	1837.114781605687	1837.1147816057
0	14391	1840.191658932222	1840.1916589322
1	13675	1742.559197399772	1424.1847019505
1	13711	1745.554149854776	1378.1530341543
1	13779	1757.60742966561	1431.8553277761
1	13852	1766.31583840269	1482.6207610318
1	13868	1770.118886937233	1434.2066506823
1	13884	1772.187141872387	1484.9843138392
1	13895	1772.56399915428	1439.1443216124
1	13936	1793.561213450696	1428.0715065095
1	13962	1796.078617816979	1497.640362162
1	14033	1804.618771573996	1590.1792121353
1	14056	1805.422584678801	1434.5200779285
1	14080	1806.030356330322	1465.6176760989
1	14115	1807.035854631244	1532.5981258457
1	14121	1807.077826566243	1514.5278667783
1	14138	1807.259934983508	1491.4714138256
1	14209	1820.790029840572	1504.1920483773
1	14220	1822.586782820247	1504.3817281366
1	14226	1822.707145955671	1373.1761515177
1	14237	1822.714876995209	1528.8429473023
1	14250	1822.924162862841	1541.6753232358
1	14328	1829.528467967158	1547.016186385
1	14350	1832.379508149749	1495.6731606835
1	14357	1833.18373117134	1555.8441192824
1	14379	1837.114781605687	1477.821273539
1	14391	1840.191658932222	1582.1505372809
2	13675	1742.559197399772	0
2	13711	1745.554149854776	0
2	13779	1757.60742966561	0
2	13852	1766.31583840269	0
2	13868	1770.118886937233	0
2	13884	1772.187141872387	0
2	13895	1772.56399915428	0
2	13936	1793.561213450696	0
2	13962	1796.078617816979	0
2	14033	1804.618771573996	0
2	14056	1805.422584678801	0
2	14080	1806.030356330322	0
2	14115	1807.035854631244	0
2	14121	1807.077826566243	0
2	14138	1807.259934983508	0
2	14209	1820.790029840572	0
2	14220	1822.586782820247	0
2	14226	1822.707145955671	0
2	14237	1822.714876995209	0
2	14250	1822.924162862841	0
2	14328	1829.528467967158	0
2	14350	1832.379508149749	0
2	14357	1833.18373117134	0
2	14379	1837.114781605687	0
2	14391	1840.191658932222	0
3	13675	1742.559197399772	120.17722635298
3	13711	1745.554149854776	92.371626231862
3	13779	1757.60742966561	176.29330428158
3	13852	1766.31583840269	104.10595951592
3	13868	1770.118886937233	192.95906596565
3	13884	1772.187141872387	129.86196275761
3	13895	1772.56399915428	104.6348269296
3	13936	1793.561213450696	164.90003863716
3	13962	1796.078617816979	130.69618539614
3	14033	1804.618771573996	87.651379031512
3	14056	1805.422584678801	157.14136528635
3	14080	1806.030356330322	122.92433323433
3	14115	1807.035854631244	148.97918947494
3	14121	1807.077826566243	123.74273174011
3	14138	1807.259934983508	114.52841846968
3	14209	1820.790029840572	114.63074459293
3	14220	1822.586782820247	149.2378081867
3	14226	1822.707145955671	163.30619287407
3	14237	1822.714876995209	79.346597439959
3	14250	1822.924162862841	159.13579197158
3	14328	1829.528467967158	133.14374856798
3	14350	1832.379508149749	116.59106837335
3	14357	1833.18373117134	137.37549690913
3	14379	1837.114781605687	211.95150125837
3	14391	1840.191658932222	117.2584802959
4	13675	1742.559197399772	49
4	13711	1745.554149854776	46
4	13779	1757.60742966561	51
4	13852	1766.31583840269	36
4	13868	1770.118886937233	77
4	13884	1772.187141872387	62
4	13895	1772.56399915428	38
4	13936	1793.561213450696	62
4	13962	1796.078617816979	51
4	14033	1804.618771573996	40
4	14056	1805.422584678801	58
4	14080	1806.030356330322	42
4	14115	1807.035854631244	65
4	14121	1807.077826566243	50
4	14138	1807.259934983508	39
4	14209	1820.790029840572	52
4	14220	1822.586782820247	55
4	14226	1822.707145955671	51
4	14237	1822.714876995209	29
4	14250	1822.924162862841	71
4	14328	1829.528467967158	60
4	14350	1832.379508149749	52
4	14357	1833.18373117134	43
4	14379	1837.114781605687	53
4	14391	1840.191658932222	60
5	13675	1742.559197399772	0
5	13711	1745.554149854776	0
5	13779	1757.60742966561	0
5	13852	1766.31583840269	0
5	13868	1770.118886937233	0
5	13884	1772.187141872387	0
5	13895	1772.56399915428	0
5	13936	1793.561213450696	0
5	13962	1796.078617816979	0
5	14033	1804.618771573996	0
5	14056	1805.422584678801	0
5	14080	1806.030356330322	0
5	14115	1807.035854631244	0
5	14121	1807.077826566243	0
5	14138	1807.259934983508	0
5	14209	1820.790029840572	0
5	14220	1822.586782820247	0
5	14226	1822.707145955671	0
5	14237	1822.714876995209	0
5	14250	1822.924162862841	0
5	14328	1829.528467967158	0
5	14350	1832.379508149749	0
5	14357	1833.18373117134	0
5	14379	1837.114781605687	0
5	14391	1840.191658932222	0
6	13675	1742.559197399772	0
6	13711	1745.554149854776	0
6	13779	1757.60742966561	0
6	13852	1766.31583840269	0
6	13868	1770.118886937233	0
6	13884	1772.187141872387	0
6	13895	1772.56399915428	0
6	13936	1793.561213450696	0
6	13962	1796.078617816979	0
6	14033	1804.618771573996	0
6	14056	1805.422584678801	0
6	14080	1806.030356330322	0
6	14115	1807.035854631244	0
6	14121	1807.077826566243	0
6	14138	1807.259934983508	0
6	14209	1820.790029840572	0
6	14220	1822.586782820247	0
6	14226	1822.707145955671	0
6	14237	1822.714876995209	0
6	14250	1822.924162862841	0
6	14328	1829.528467967158	0
6	14350	1832.379508149749	0
6	14357	1833.18373117134	0
6	14379	1837.114781605687	0
6	14391	1840.191658932222	0
8	0	0	0
8	163	4.00977423324	1
8	194	5.443953729355	2
8	196	5.453615172179	3
8	198	5.499596033108	4
8	211	5.715003181233	5
8	213	5.726919896271	6
8	215	6.631013051382	7
8	217	6.639300188642	8
8	219	7.531989085099	9
8	221	7.977579239002	10
8	223	9.381940851404	11
8	225	9.656673651422	12
8	227	9.705722581413	13
8	229	10.016790557176	14
8	231	11.489355117372	15
8	233	12.001889365727	16
8	248	16.076380288046	15
8	262	17.049950941208	16
8	272	18.915634821224	17
8	292	21.792116276453	16
8	339	26.815182604564	17
8	358	29.513443726774	18
8	368	30.171062637663	17
8	376	30.250483975944	16
8	398	34.978763454284	17
8	415	36.640674754691	18
8	425	39.68491687682	17
8	437	43.65986119471	18
8	439	44.283193347772	19
8	509	60.236631377047	18
8	514	60.257369045482	17
8	529	60.91182735418	16
8	539	61.735281303855	15
8	549	61.9567539026	14
8	561	62.628205389959	15
8	563	63.594710217009	16
8	565	64.432268724844	17
8	575	66.655476019211	16
8	585	67.163650151932	15
8	592	67.469791909118	16
8	594	67.474321165394	17
8	604	68.482369673453	16
8	609	68.653552942868	15
8	621	68.775575789262	16
8	628	69.161557767609	17
8	630	69.263593085484	18
8	635	70.688085363893	17
8	657	73.088966508259	18
8	659	76.375209250072	19
8	676	81.291646965101	20
8	686	81.496306070069	19
8	731	83.943352944482	18
8	743	86.16504825861	19
8	748	86.688430707015	18
8	760	87.389814971913	19
8	820	97.128203164773	18
8	837	99.693864300269	19
8	857	105.142377118975	18
8	872	106.239311740291	17
8	879	110.85315322648	18
8	881	112.152826035655	19
8	893	113.670248978865	18
8	901	113.787860613314	17
8	910	113.921114854848	18
8	913	114.084322361728	17
8	918	114.132253859248	16
8	945	115.501829550214	15
8	955	115.744932134595	14
8	970	117.433365909842	15
8	975	117.509635855772	14
8	995	118.018733674594	13
8	1009	119.022785528264	14
8	1019	119.439159463362	13
8	1024	119.448347700819	12
8	1031	119.629298223437	13
8	1046	120.703879629495	14
8	1055	121.906168007156	15
8	1065	123.123610375488	16
8	1085	126.661603955275	15
8	1115	127.27013049258	14
8	1124	127.625147755929	15
8	1127	127.726231748855	14
8	1137	128.566445755954	13
8	1144	128.677465695294	14
8	1154	128.794282533784	13
8	1161	129.349245697612	14
8	1168	130.512674860897	15
8	1175	132.320286154563	16
8	1182	132.392610890252	17
8	1222	144.238714824908	16
8	1232	144.595279900878	15
8	1242	144.75807098918	14
8	1252	145.78899927619	13
8	1256	145.789039487985	14
8	1266	146.918611289732	15
8	1270	147.162958093974	16
8	1300	148.826174434679	17
8	1302	149.904668636557	18
8	1322	152.747896475324	17
8	1326	152.766740796012	18
8	1336	154.820902287935	17
8	1364	156.589303558959	16
8	1369	156.738824306735	15
8	1373	156.907327390074	16
8	1378	157.112352118229	17
8	1403	161.076077551287	16
8	1415	161.724721328104	17
8	1432	164.330537573715	18
8	1472	166.615570353427	17
8	1511	169.022805175927	18
8	1549	171.035664954247	17
8	1566	172.147175632389	18
8	1576	172.58695668964	17
8	1593	173.146332078438	18
8	1645	180.816250537487	19
8	1665	181.290905456776	18
8	1680	181.633622024088	17
8	1685	181.731915468118	16
8	1712	185.730609220656	15
8	1719	185.955347913672	16
8	1721	186.014358383506	17
8	1729	186.093706098563	16
8	1748	187.442846941141	17
8	1756	187.803090299701	16
8	1761	187.888928892406	15
8	1766	188.153929443914	14
8	1770	188.284484934378	15
8	1783	189.225009947541	14
8	1788	189.282728757883	13
8	1795	189.571957108038	14
8	1802	189.910459834787	15
8	1814	192.562714137268	16
8	1819	193.025309402752	15
8	1861	196.056870603869	16
8	1868	197.829969326046	17
8	1870	197.881032762162	18
8	1877	203.035460094964	19
8	1882	203.340499964689	18
8	1902	208.542422965161	17
8	1952	215.793788030302	16
8	1959	216.976279026392	17
8	1984	222.778690966195	16
8	1990	222.851145602461	17
8	1995	223.085934036176	16
8	2016	223.643822894241	15
8	2035	224.157150719275	14
8	2044	224.373826289358	15
8	2068	225.42692001973	14
8	2073	225.459444993798	13
8	2100	227.257446268028	14
8	2102	227.481539783416	15
8	2104	228.106589774114	16
8	2124	229.414808453759	15
8	2129	229.519175605065	14
8	2133	229.575054581412	15
8	2138	229.746904921366	16
8	2143	230.030951032085	15
8	2150	231.341585282253	16
8	2152	232.811161492098	17
8	2159	233.03615376517	18
8	2166	233.981510559756	19
8	2188	246.631331278266	20
8	2275	264.589852565054	19
8	2288	265.319460810361	18
8	2298	266.433712252914	17
8	2305	266.519142706245	18
8	2320	267.188720968405	17
8	2330	267.399711201216	16
8	2340	268.000164560081	15
8	2374	271.110188872767	16
8	2376	271.212359577532	17
8	2406	272.521647285496	18
8	2411	274.799888894479	17
8	2421	274.875221874962	16
8	2425	274.89755827559	17
8	2445	277.648980307965	18
8	2480	282.501420126536	17
8	2502	289.121590019316	18
8	2557	292.829742990351	17
8	2604	298.105804804818	18
8	2609	298.399934751686	17
8	2624	299.719150119791	16
8	2639	300.099519430922	15
8	2648	300.348159091235	16
8	2651	300.525311672081	15
8	2656	300.595232504131	14
8	2661	300.708074455112	13
8	2683	308.131347507842	14
8	2704	309.341097032498	15
8	2722	311.300873051851	16
8	2734	311.973625402861	15
8	2772	315.313714805073	14
8	2777	315.608647344081	13
8	2784	316.393666490544	14
8	2786	316.445807593046	15
8	2796	316.629316053614	14
8	2803	317.056630210533	15
8	2837	324.630786112994	16
8	2842	324.866401236764	17
8	2844	325.101906562959	18
8	2846	326.686458273502	19
8	2901	333.000331221322	18
8	2946	335.030967992453	17
8	2966	335.481743116964	16
8	2993	337.344274249668	17
8	3000	337.599866363941	18
8	3017	340.219851921728	19
8	3059	345.616188179272	20
8	3074	349.410753205972	19
8	3089	349.7104229402	18
8	3104	350.970047817161	17
8	3109	351.012235480777	16
8	3124	351.324677179872	15
8	3144	353.253202733924	14
8	3151	353.516038541799	15
8	3156	354.606914257219	14
8	3161	354.63477756745	13
8	3203	357.596865230912	14
8	3210	358.810758035852	15
8	3212	361.176669366215	16
8	3214	361.357640345913	17
8	3216	361.483832961402	18
8	3246	363.644279665536	17
8	3263	364.08735032364	18
8	3315	371.313194893594	19
8	3319	371.946494374406	20
8	3322	372.114926062135	19
8	3341	375.96764585521	20
8	3359	378.089767588395	19
8	3399	383.997178319725	18
8	3406	384.621424276892	19
8	3451	388.824744841042	18
8	3491	392.158067241365	17
8	3508	394.9173235769	18
8	3513	397.090729653384	17
8	3528	398.755878090299	16
8	3533	398.91751185361	15
8	3553	399.203540555851	14
8	3575	400.796769138503	15
8	3577	400.955842290912	16
8	3581	401.155693191323	17
8	3583	401.189024715415	18
8	3623	405.780238092747	19
8	3640	408.716110476098	20
8	3690	429.454867607902	19
8	3697	429.957746043019	20
8	3737	435.023073125943	19
8	3762	436.587925544794	18
8	3783	437.562184810543	19
8	3796	438.516129742294	20
8	3801	440.684027151128	19
8	3821	443.650563659101	18
8	3832	443.971031789872	19
8	3845	444.339655040404	18
8	3850	444.616361633628	17
8	3870	446.474858552545	18
8	3885	447.738895571021	17
8	3890	447.764471491538	16
8	3897	447.885086671127	17
8	3899	447.97082789949	18
8	3916	449.281825391286	17
8	3956	451.68397628163	18
8	3968	453.485113727139	19
8	4002	457.507485310374	20
8	4025	458.939022999528	19
8	4030	458.950791326705	18
8	4037	459.248223624018	17
8	4072	463.115669045301	18
8	4107	470.838484353032	17
8	4154	477.439637791355	18
8	4156	480.455349531787	19
8	4191	484.739881781464	18
8	4196	484.756583671576	17
8	4208	485.922173294851	18
8	4223	490.038302771663	17
8	4228	490.040729897705	16
8	4260	492.165790925065	17
8	4270	494.338140060175	16
8	4287	495.488358723349	17
8	4324	511.106145107583	18
8	4366	514.416291848592	19
8	4371	514.476136257423	18
8	4378	515.931046682531	19
8	4383	516.482962548742	18
8	4393	518.062085833562	17
8	4400	519.326309429975	18
8	4407	523.297887924597	19
8	4427	525.4821859028	18
8	4436	525.737153159865	19
8	4466	537.458778899189	20
8	4471	541.422119189792	19
8	4508	567.317716698642	20
8	4523	568.014029147183	19
8	4528	568.155500065997	18
8	4533	568.161662651901	17
8	4540	568.838936717869	18
8	4550	571.63866464443	17
8	4560	573.398895965215	16
8	4570	573.58801185517	15
8	4575	573.637784275264	14
8	4580	573.746724529822	13
8	4587	579.785525716304	14
8	4589	582.371153658126	15
8	4591	583.505160072465	16
8	4613	586.485842971613	17
8	4630	589.032228225846	18
8	4635	589.245446793154	17
8	4672	592.678122596021	18
8	4684	594.63380952583	19
8	4689	594.939459771584	18
8	4709	597.55335378557	17
8	4764	603.60122342837	16
8	4768	603.661875304942	17
8	4793	604.495380754718	18
8	4805	605.0184295581	17
8	4812	605.045495920242	18
8	4827	608.570321474086	19
8	4862	613.17933745505	18
8	4921	616.427335095716	19
8	4923	616.435066218139	20
8	4936	617.685687817009	19
8	4941	617.822820808932	18
8	4946	617.906201706534	17
8	4953	618.297673203365	18
8	4983	619.82897903329	17
8	4990	620.279800938342	18
8	4992	622.792783409268	19
8	5031	628.071012771806	20
8	5034	628.196313707435	19
8	5064	630.86128297829	18
8	5071	635.264337073009	19
8	5086	635.878895453865	18
8	5101	638.183792933428	17
8	5116	639.04826953126	16
8	5121	639.105621939525	15
8	5126	639.234580684503	14
8	5131	639.324924032143	13
8	5140	639.587697935968	14
8	5160	640.390427857116	15
8	5175	643.134739194809	14
8	5182	643.30461163607	13
8	5190	643.353908793884	12
8	5217	645.274673915652	13
8	5219	645.635075053532	14
8	5221	650.228715866739	15
8	5223	650.304799774443	16
8	5229	650.59474205476	17
8	5240	651.200432362259	16
8	5245	651.212259290549	15
8	5252	651.43315812255	16
8	5254	651.475901195354	17
8	5256	655.27712481341	18
8	5258	656.359418713096	19
8	5263	659.055980541651	18
8	5293	660.439098316311	17
8	5310	662.61091608864	18
8	5315	663.388289006809	17
8	5320	663.60094376364	16
8	5332	665.103500942604	17
8	5334	665.783884697339	18
8	5341	668.494566963549	19
8	5348	668.771466869162	18
8	5381	670.967039616857	17
8	5388	671.138266090728	18
8	5390	674.46330815415	19
8	5397	676.106607602882	20
8	5422	679.253066346069	19
8	5427	679.306410361839	18
8	5489	680.83189214761	17
8	5496	681.1828030225	16
8	5503	681.33706247288	15
8	5508	681.497943517468	14
8	5521	681.794768490827	13
8	5542	682.126041545897	12
8	5564	682.646134483555	11
8	5579	683.097553869878	12
8	5581	683.144533001551	13
8	5598	683.830149076225	14
8	5600	684.63126853573	15
8	5602	685.244499410411	16
8	5609	688.098085164979	17
8	5614	690.139292991712	16
8	5619	690.355769684022	15
8	5634	691.229968958254	14
8	5643	691.518496457417	15
8	5653	691.980418533665	16
8	5675	694.372522556286	17
8	5682	695.052148017221	18
8	5689	696.953781173387	19
8	5694	702.427428079131	18
8	5699	702.485281169252	17
8	5734	708.119950251574	16
8	5746	709.544954545347	17
8	5748	711.332007584724	18
8	5760	713.860566632651	19
8	5762	714.239438501382	20
8	5792	720.156419779712	19
8	5807	720.669226593591	18
8	5812	720.709097730182	17
8	5822	720.850395901336	16
8	5837	721.959458720352	15
8	5847	722.651705550819	14
8	5851	723.035574768821	15
8	5856	724.804201526789	16
8	5858	725.067418815698	17
8	5870	732.549766705023	18
8	5877	733.769931847294	19
8	5887	735.455506705992	18
8	5907	736.550955556274	17
8	5922	737.799275333594	16
8	5927	738.022616615579	15
8	5932	738.09595818114	14
8	5944	739.271099168766	15
8	5959	741.789285713954	14
8	5971	742.065482345999	13
8	5986	743.20591944352	14
8	6011	747.212755995546	13
8	6021	747.41554702248	12
8	6025	747.43140509192	13
8	6037	748.075999309537	14
8	6077	750.658843431196	15
8	6079	751.897992640382	16
8	6086	753.653068038129	17
8	6116	755.099208269245	16
8	6121	755.150990783513	15
8	6128	755.30187284478	16
8	6133	755.704926145229	15
8	6148	756.002047584237	14
8	6155	756.017130409617	15
8	6180	757.671374982701	14
8	6197	759.767394085291	15
8	6199	761.264392069561	16
8	6204	761.447107527181	15
8	6216	762.397626184728	16
8	6258	763.882062318085	17
8	6265	766.210168969077	18
8	6267	766.39158915762	19
8	6272	768.59356276484	18
8	6299	771.498031498724	19
8	6301	774.005660671823	20
8	6346	784.887809367744	19
8	6358	788.068286132005	20
8	6390	789.919249541043	19
8	6398	790.428689943431	18
8	6425	793.527450417024	19
8	6445	803.041499940884	18
8	6465	804.395690650136	17
8	6472	805.269122266124	18
8	6474	805.280110450504	19
8	6476	805.303548341133	20
8	6496	814.075146009886	19
8	6528	822.667414694912	20
8	6575	828.511974353973	19
8	6598	829.925588177986	18
8	6613	830.786811786602	17
8	6618	830.855724590071	16
8	6629	831.285152853872	17
8	6637	831.764209058333	18
8	6657	835.184854295995	17
8	6679	838.292182335468	18
8	6691	839.706398719991	19
8	6713	845.187358414236	20
8	6743	848.720655896136	19
8	6765	851.905128503312	20
8	6770	857.520465914089	19
8	6795	860.466172262003	18
8	6800	860.499223298015	17
8	6825	862.008914386714	16
8	6835	862.131619597245	15
8	6840	862.153958923693	14
8	6850	862.560419825037	13
8	6857	862.63497973874	12
8	6885	864.393949613514	11
8	6895	864.715248870956	10
8	6900	864.71802958407	9
8	6912	865.347095674856	10
8	6914	865.409778361132	11
8	6916	868.251689784434	12
8	6941	869.599529640381	11
8	6945	869.633493409111	12
8	6950	869.676359643914	11
8	6974	870.656705205389	12
8	6999	871.176030626973	11
8	7022	872.258282463938	12
8	7024	872.533523217867	13
8	7026	873.95330860672	14
8	7038	875.568082529207	15
8	7050	877.735398250763	16
8	7065	878.740036102091	15
8	7072	879.299011583903	16
8	7074	880.30612987938	17
8	7084	880.42945968474	16
8	7099	881.039485580932	15
8	7109	881.324426183812	14
8	7124	881.744529539812	13
8	7131	881.959010036553	14
8	7133	882.180626367584	15
8	7145	883.370532276069	16
8	7150	884.49656059288	15
8	7159	884.739794532908	16
8	7169	885.473090482031	17
8	7174	885.648752042419	16
8	7189	886.237929984507	15
8	7196	887.925938344309	16
8	7213	892.896483968016	17
8	7230	894.494241083626	18
8	7237	895.737693464079	19
8	7242	897.933437570016	18
8	7257	899.126349860844	17
8	7279	902.042227176465	18
8	7291	902.380717815983	19
8	7311	905.798577005505	18
8	7318	905.930560602359	19
8	7325	906.966103166344	20
8	7375	914.201713808772	19
8	7402	918.054314183115	20
8	7412	922.211351311256	19
8	7424	924.607702038895	20
8	7429	925.991076150392	19
8	7436	926.911469532251	20
8	7446	933.505916139072	19
8	7463	942.632916889366	20
8	7483	944.319644893014	19
8	7493	944.581639896574	18
8	7498	944.604459131723	17
8	7503	944.853089096508	16
8	7520	945.775158856328	17
8	7522	946.091533270758	18
8	7527	947.551644491572	17
8	7537	947.629849465603	16
8	7546	948.628420338206	17
8	7551	949.201735776274	18
8	7576	952.608597962355	17
8	7583	953.196993618021	18
8	7593	953.786278498189	17
8	7600	957.580600275042	18
8	7617	958.060957854089	19
8	7637	959.245878323834	18
8	7654	962.316277492353	19
8	7689	964.499760427156	18
8	7699	965.180392993964	17
8	7704	965.187774425274	16
8	7713	965.360141548981	17
8	7756	968.330948101331	16
8	7765	968.47635906327	17
8	7783	970.000197135843	16
8	7810	977.019453794117	17
8	7840	983.742780863393	16
8	7847	984.031279377378	17
8	7849	988.10147998192	18
8	7861	990.302390932363	17
8	7881	991.63945446652	18
8	7911	993.525719625629	17
8	7953	999.726221736722	18
8	7968	1003.708201663339	17
8	8018	1006.654781875367	16
8	8033	1007.030896932741	15
8	8043	1007.342128120001	14
8	8049	1007.428632252128	15
8	8074	1010.074894227957	16
8	8082	1010.398356775767	15
8	8099	1011.744002074072	14
8	8103	1011.871843050825	15
8	8128	1014.5884835372	16
8	8136	1014.833016671297	15
8	8141	1014.836232061772	14
8	8158	1015.690837581658	15
8	8170	1016.962750116518	16
8	8182	1022.125541494901	17
8	8194	1023.494329941608	18
8	8214	1024.594544835663	17
8	8239	1029.870490841596	16
8	8251	1033.636188268792	17
8	8261	1035.809580344812	16
8	8266	1036.227766950153	15
8	8273	1036.43195589455	14
8	8298	1037.458813434825	15
8	8303	1037.639814374115	14
8	8322	1038.033596685901	15
8	8332	1038.151759622252	14
8	8380	1042.508805564162	13
8	8385	1042.526311017225	12
8	8407	1042.910868603523	13
8	8414	1043.149150537168	14
8	8419	1043.311189561902	13
8	8436	1043.808442610922	14
8	8441	1043.995723517195	13
8	8475	1047.691227558828	14
8	8488	1049.551753587061	13
8	8498	1049.670490655109	12
8	8505	1051.77660006322	13
8	8507	1052.129988996716	14
8	8512	1052.540614410341	13
8	8526	1054.030897817281	14
8	8546	1054.687090281252	15
8	8548	1055.06536931819	16
8	8553	1057.598408784351	15
8	8560	1060.228768413949	16
8	8582	1063.767756281212	17
8	8584	1064.60824084124	18
8	8589	1064.907057771153	17
8	8616	1067.359095418536	18
8	8618	1067.515896363544	19
8	8708	1088.35966511946	18
8	8723	1092.1415948026	17
8	8728	1092.192133809323	16
8	8738	1095.381446914831	15
8	8743	1095.389557286813	14
8	8762	1096.093763442469	15
8	8805	1098.031951958991	14
8	8840	1100.653768748453	13
8	8857	1101.16692018655	14
8	8863	1101.584071953906	15
8	8923	1106.769785484918	16
8	8956	1109.280689844302	15
8	8977	1109.697827557811	16
8	8980	1109.708558223703	15
8	9004	1110.189698918328	16
8	9025	1110.792395239268	15
8	9040	1111.126336183426	16
8	9069	1111.729014804095	17
8	9084	1112.563023459255	16
8	9091	1114.351436914985	17
8	9108	1117.875935381122	18
8	9118	1118.856010097247	17
8	9123	1118.871665593651	16
8	9128	1119.046051562139	15
8	9142	1119.969215624637	16
8	9159	1126.616324400731	17
8	9172	1128.343939748108	16
8	9176	1128.360699409516	17
8	9181	1129.038633079935	18
8	9183	1130.217378255272	19
8	9203	1134.268091066337	18
8	9228	1141.495527399632	17
8	9233	1141.496380639587	16
8	9237	1141.499269512693	17
8	9272	1143.297206279785	18
8	9274	1144.511331111513	19
8	9279	1144.814642520059	18
8	9296	1150.240784677354	19
8	9313	1154.308298128321	20
8	9348	1165.827341187966	19
8	9368	1171.17263705358	18
8	9413	1174.173241317831	17
8	9420	1174.293628343355	18
8	9427	1175.701160707523	19
8	9487	1180.259716544102	18
8	9499	1181.424201840495	19
8	9501	1184.099559591063	20
8	9506	1184.321059572661	19
8	9511	1184.344739094992	18
8	9516	1184.387621046962	17
8	9521	1184.457487866836	16
8	9528	1184.662963915917	17
8	9533	1185.68268888146	16
8	9550	1188.611796859884	17
8	9557	1188.785370368865	18
8	9592	1191.368773367905	17
8	9624	1194.558961685788	18
8	9631	1195.969397739549	19
8	9638	1198.484403289228	20
8	9683	1207.94759640054	19
8	9702	1208.832659624648	18
8	9710	1209.071785566018	17
8	9733	1210.251464854798	16
8	9740	1210.311759781926	15
8	9747	1210.587086094962	16
8	9760	1210.90335020148	15
8	9772	1211.871708675228	16
8	9782	1212.067734411355	15
8	9788	1212.140281203666	16
8	9799	1212.338801361205	15
8	9806	1212.51664313946	16
8	9808	1212.949295743586	17
8	9813	1213.404268202808	16
8	9820	1213.798182183006	17
8	9825	1214.290138718459	16
8	9832	1214.805050111781	17
8	9842	1215.386489319907	16
8	9847	1215.411177441452	15
8	9851	1215.425538024741	16
8	9868	1217.656122319125	17
8	9891	1221.789721699609	16
8	9898	1221.903704738433	17
8	9913	1225.275614708473	16
8	9940	1227.747512016595	17
8	9942	1233.845395841032	18
8	9944	1234.772414688145	19
8	9954	1235.478940007928	18
8	9971	1236.224277979634	19
8	9981	1238.117739534185	18
8	9986	1238.139224050687	17
8	9996	1238.387238395989	16
8	10008	1239.69324260381	17
8	10010	1241.017764917256	18
8	10025	1242.386468068613	17
8	10037	1242.815763875502	18
8	10056	1245.516529301935	19
8	10064	1245.852972773643	18
8	10079	1246.831834817686	17
8	10126	1253.638813954599	16
8	10131	1253.682656065003	15
8	10138	1253.797522268949	16
8	10141	1253.853296408823	15
8	10158	1257.172365743391	16
8	10160	1259.928899337371	17
8	10170	1260.836781680074	16
8	10182	1261.796992936385	17
8	10197	1264.025053323033	16
8	10241	1266.774678160022	17
8	10246	1266.993019527101	18
8	10248	1267.695166266412	19
8	10253	1267.960395102585	18
8	10260	1270.38025521382	19
8	10297	1278.071035343166	18
8	10310	1278.316903300262	17
8	10345	1279.534354383874	16
8	10365	1282.545880274813	15
8	10390	1284.879468136444	14
8	10405	1285.361502254101	13
8	10424	1286.169245609639	14
8	10432	1286.274973160247	13
8	10454	1287.780471730254	14
8	10456	1288.493694969844	15
8	10458	1289.719745313217	16
8	10465	1290.888940008235	17
8	10512	1297.44194041769	18
8	10522	1298.217540135397	17
8	10541	1298.974783197814	18
8	10546	1299.427301728789	19
8	10551	1300.34800649868	18
8	10556	1300.69867348189	17
8	10576	1301.67382721356	16
8	10603	1304.292990267108	17
8	10610	1312.521976430201	18
8	10625	1320.430129645965	17
8	10665	1324.994489530999	16
8	10687	1327.373838061088	17
8	10689	1334.976530554922	18
8	10699	1335.385868891524	17
8	10711	1335.844355819382	18
8	10728	1338.674697242107	19
8	10733	1340.738924716676	18
8	10773	1349.020764044401	17
8	10800	1350.592914323454	16
8	10815	1350.971238066102	17
8	10825	1352.603970550452	16
8	10835	1353.000277241467	15