version 2
run Multitask30-4-20150106-11:37:57-5516
attr configname Multitask30
attr datetime 20150106-11:37:57
attr experiment Multitask30
attr inifile omnetpp.ini
attr iterationvars ""
attr iterationvars2 $repetition=4
attr measurement ""
attr network Multitask
attr processid 5516
attr repetition 4
attr replication #4
attr resultdir results
attr runnumber 4
attr seedset 4

vector 8  Multitask.allocateQ2  queueLength:vector  ETV
attr interpolationmode  sample-hold
attr title  "queue length, vector"
vector 11  Multitask.queue3  queueLength:vector  ETV
attr interpolationmode  sample-hold
attr title  "queue length, vector"
vector 13  Multitask.queue3  busy:vector  ETV
attr interpolationmode  sample-hold
attr title  "server busy state, vector"
vector 15  Multitask.queue4  queueLength:vector  ETV
attr interpolationmode  sample-hold
attr title  "queue length, vector"
vector 17  Multitask.queue4  busy:vector  ETV
attr interpolationmode  sample-hold
attr title  "server busy state, vector"
vector 19  Multitask.queue5  queueLength:vector  ETV
attr interpolationmode  sample-hold
attr title  "queue length, vector"
vector 21  Multitask.queue5  busy:vector  ETV
attr interpolationmode  sample-hold
attr title  "server busy state, vector"
vector 23  Multitask.queue6  queueLength:vector  ETV
attr interpolationmode  sample-hold
attr title  "queue length, vector"
vector 25  Multitask.queue6  busy:vector  ETV
attr interpolationmode  sample-hold
attr title  "server busy state, vector"
vector 27  Multitask.queue7  queueLength:vector  ETV
attr interpolationmode  sample-hold
attr title  "queue length, vector"
vector 29  Multitask.queue7  busy:vector  ETV
attr interpolationmode  sample-hold
attr title  "server busy state, vector"
vector 30  Multitask.resourceCPU  amount:vector  ETV
attr interpolationmode  sample-hold
attr title  "available resource, vector"
vector 12  Multitask.queue3  queueingTime:vector  ETV
attr interpolationmode  none
attr title  "queueing time at dequeue, vector"
attr unit  s
vector 24  Multitask.queue6  queueingTime:vector  ETV
attr interpolationmode  none
attr title  "queueing time at dequeue, vector"
attr unit  s
vector 16  Multitask.queue4  queueingTime:vector  ETV
attr interpolationmode  none
attr title  "queueing time at dequeue, vector"
attr unit  s
vector 28  Multitask.queue7  queueingTime:vector  ETV
attr interpolationmode  none
attr title  "queueing time at dequeue, vector"
attr unit  s
vector 20  Multitask.queue5  queueingTime:vector  ETV
attr interpolationmode  none
attr title  "queueing time at dequeue, vector"
attr unit  s
vector 9  Multitask.allocateQ2  queueingTime:vector  ETV
attr interpolationmode  none
attr title  "queueing time at dequeue, vector"
attr unit  s
vector 0  Multitask.sink  lifeTime:vector  ETV
attr interpolationmode  none
attr title  "lifetime of arrived jobs, vector"
attr unit  s
vector 1  Multitask.sink  totalQueueingTime:vector  ETV
attr interpolationmode  none
attr title  "the total time spent in queues by arrived jobs, vector"
attr unit  s
vector 4  Multitask.sink  queuesVisited:vector  ETV
attr interpolationmode  none
attr title  "the total number of queues visited by arrived jobs, vector"
vector 3  Multitask.sink  totalServiceTime:vector  ETV
attr interpolationmode  none
attr title  "the total time spent  by arrived jobs, vector"
attr unit  s
vector 2  Multitask.sink  totalDelayTime:vector  ETV
attr interpolationmode  none
attr title  "the total time spent in delay nodes by arrived jobs, vector"
attr unit  s
vector 5  Multitask.sink  delaysVisited:vector  ETV
attr interpolationmode  none
attr title  "the total number of delays visited by arrived jobs, vector"
vector 6  Multitask.sink  generation:vector  ETV
attr interpolationmode  none
attr title  "the generation of the arrived jobs, vector"
0	12301	1510.162540536975	1510.162540537
0	12349	1516.329291938475	1516.3292919385
0	12414	1522.820422770537	1522.8204227705
0	12450	1527.017760957239	1527.0177609572
0	12491	1527.465502365034	1527.465502365
0	12502	1527.905386727219	1527.9053867272
0	12518	1529.577254745801	1529.5772547458
0	12539	1533.595670984411	1533.5956709844
0	12570	1542.348167558398	1542.3481675584
0	12576	1542.385926324601	1542.3859263246
0	12694	1571.381095429567	1571.3810954296
0	12750	1578.824451648015	1578.824451648
0	12763	1579.055461606281	1579.0554616063
0	12779	1579.188958522288	1579.1889585223
0	12787	1579.248457529407	1579.2484575294
0	12824	1581.052945578292	1581.0529455783
0	12870	1584.945905859071	1584.9459058591
0	12886	1594.818944234468	1594.8189442345
0	12927	1605.267499144373	1605.2674991444
0	12938	1605.838086713038	1605.838086713
0	12983	1611.415546474461	1611.4155464745
0	13005	1615.036085147197	1615.0360851472
0	13037	1624.546153328385	1624.5461533284
0	13044	1624.636845288134	1624.6368452881
0	13056	1625.906062210827	1625.9060622108
1	12301	1510.162540536975	1176.0103693299
1	12349	1516.329291938475	1221.8162761002
1	12414	1522.820422770537	1216.854814254
1	12450	1527.017760957239	1257.2099979013
1	12491	1527.465502365034	1225.346415152
1	12502	1527.905386727219	1222.9549314317
1	12518	1529.577254745801	1182.4588514701
1	12539	1533.595670984411	1208.285804033
1	12570	1542.348167558398	1164.5416966929
1	12576	1542.385926324601	1205.4119145529
1	12694	1571.381095429567	1229.1812844488
1	12750	1578.824451648015	1200.7115367614
1	12763	1579.055461606281	1248.5511704419
1	12779	1579.188958522288	1196.3827361815
1	12787	1579.248457529407	1234.7245209567
1	12824	1581.052945578292	1288.9249630587
1	12870	1584.945905859071	1315.6261810081
1	12886	1594.818944234468	1318.8440718604
1	12927	1605.267499144373	1230.045396205
1	12938	1605.838086713038	1271.1970160921
1	12983	1611.415546474461	1214.3356634297
1	13005	1615.036085147197	1297.9056947579
1	13037	1624.546153328385	1297.9471806302
1	13044	1624.636845288134	1288.9859873116
1	13056	1625.906062210827	1248.2988373183
2	12301	1510.162540536975	0
2	12349	1516.329291938475	0
2	12414	1522.820422770537	0
2	12450	1527.017760957239	0
2	12491	1527.465502365034	0
2	12502	1527.905386727219	0
2	12518	1529.577254745801	0
2	12539	1533.595670984411	0
2	12570	1542.348167558398	0
2	12576	1542.385926324601	0
2	12694	1571.381095429567	0
2	12750	1578.824451648015	0
2	12763	1579.055461606281	0
2	12779	1579.188958522288	0
2	12787	1579.248457529407	0
2	12824	1581.052945578292	0
2	12870	1584.945905859071	0
2	12886	1594.818944234468	0
2	12927	1605.267499144373	0
2	12938	1605.838086713038	0
2	12983	1611.415546474461	0
2	13005	1615.036085147197	0
2	13037	1624.546153328385	0
2	13044	1624.636845288134	0
2	13056	1625.906062210827	0
3	12301	1510.162540536975	126.13376670411
3	12349	1516.329291938475	106.81659922468
3	12414	1522.820422770537	124.21050484178
3	12450	1527.017760957239	103.00506649269
3	12491	1527.465502365034	105.71883028255
3	12502	1527.905386727219	98.969954335069
3	12518	1529.577254745801	90.743888232985
3	12539	1533.595670984411	126.48621379681
3	12570	1542.348167558398	185.01858234879
3	12576	1542.385926324601	129.93046254223
3	12694	1571.381095429567	92.762135274678
3	12750	1578.824451648015	115.41908050766
3	12763	1579.055461606281	116.90448862893
3	12779	1579.188958522288	183.5758159876
3	12787	1579.248457529407	103.47696745274
3	12824	1581.052945578292	114.09444694514
3	12870	1584.945905859071	129.84081848369
3	12886	1594.818944234468	112.29378324182
3	12927	1605.267499144373	129.99175706101
3	12938	1605.838086713038	101.64868056502
3	12983	1611.415546474461	158.66771385858
3	13005	1615.036085147197	104.49372622446
3	13037	1624.546153328385	161.69406506456
3	13044	1624.636845288134	80.752107591683
3	13056	1625.906062210827	122.88975451502
4	12301	1510.162540536975	44
4	12349	1516.329291938475	39
4	12414	1522.820422770537	52
4	12450	1527.017760957239	43
4	12491	1527.465502365034	49
4	12502	1527.905386727219	47
4	12518	1529.577254745801	36
4	12539	1533.595670984411	51
4	12570	1542.348167558398	40
4	12576	1542.385926324601	57
4	12694	1571.381095429567	32
4	12750	1578.824451648015	40
4	12763	1579.055461606281	53
4	12779	1579.188958522288	66
4	12787	1579.248457529407	40
4	12824	1581.052945578292	49
4	12870	1584.945905859071	52
4	12886	1594.818944234468	50
4	12927	1605.267499144373	41
4	12938	1605.838086713038	38
4	12983	1611.415546474461	45
4	13005	1615.036085147197	64
4	13037	1624.546153328385	60
4	13044	1624.636845288134	35
4	13056	1625.906062210827	42
5	12301	1510.162540536975	0
5	12349	1516.329291938475	0
5	12414	1522.820422770537	0
5	12450	1527.017760957239	0
5	12491	1527.465502365034	0
5	12502	1527.905386727219	0
5	12518	1529.577254745801	0
5	12539	1533.595670984411	0
5	12570	1542.348167558398	0
5	12576	1542.385926324601	0
5	12694	1571.381095429567	0
5	12750	1578.824451648015	0
5	12763	1579.055461606281	0
5	12779	1579.188958522288	0
5	12787	1579.248457529407	0
5	12824	1581.052945578292	0
5	12870	1584.945905859071	0
5	12886	1594.818944234468	0
5	12927	1605.267499144373	0
5	12938	1605.838086713038	0
5	12983	1611.415546474461	0
5	13005	1615.036085147197	0
5	13037	1624.546153328385	0
5	13044	1624.636845288134	0
5	13056	1625.906062210827	0
6	12301	1510.162540536975	0
6	12349	1516.329291938475	0
6	12414	1522.820422770537	0
6	12450	1527.017760957239	0
6	12491	1527.465502365034	0
6	12502	1527.905386727219	0
6	12518	1529.577254745801	0
6	12539	1533.595670984411	0
6	12570	1542.348167558398	0
6	12576	1542.385926324601	0
6	12694	1571.381095429567	0
6	12750	1578.824451648015	0
6	12763	1579.055461606281	0
6	12779	1579.188958522288	0
6	12787	1579.248457529407	0
6	12824	1581.052945578292	0
6	12870	1584.945905859071	0
6	12886	1594.818944234468	0
6	12927	1605.267499144373	0
6	12938	1605.838086713038	0
6	12983	1611.415546474461	0
6	13005	1615.036085147197	0
6	13037	1624.546153328385	0
6	13044	1624.636845288134	0
6	13056	1625.906062210827	0
8	0	0	0
8	131	4.590914577559	1
8	138	5.705606416441	2
8	148	7.075303672592	1
8	160	7.92375985293	2
8	167	8.49465355277	3
8	179	9.10199833363	4
8	181	9.391387669116	5
8	186	9.463566805292	4
8	198	10.022928897066	5
8	200	10.192084664438	6
8	205	10.946799470653	5
8	222	11.964307318456	6
8	224	11.987207517964	7
8	226	12.546206736829	8
8	248	13.862490430365	9
8	250	14.172819632676	10
8	252	14.954337195954	11
8	254	15.113267769088	12
8	276	19.353131106373	13
8	283	19.877249765202	14
8	288	21.96895255943	13
8	293	21.977288463823	12
8	305	22.84343095263	11
8	310	22.915736755775	10
8	315	22.922377596175	9
8	319	22.977680756559	10
8	324	23.0881903064	11
8	331	23.34886473779	12
8	334	23.362594789787	11
8	339	23.367569937069	10
8	346	24.305655305389	11
8	370	30.716346449772	12
8	375	31.063757477008	13
8	377	31.337412615053	14
8	379	32.09582522833	15
8	394	33.936455782272	14
8	406	34.121523191844	15
8	416	34.619476432117	14
8	425	34.888435276319	15
8	428	34.926212790873	14
8	432	34.955521654507	15
8	437	35.813060466942	16
8	439	36.002956209193	17
8	451	37.412029519623	18
8	461	40.6359808236	17
8	466	40.698031733984	16
8	483	44.391213711593	17
8	488	45.11528847434	16
8	505	47.288204426242	17
8	512	49.487684020174	16
8	527	50.098888980003	17
8	529	51.730968140271	18
8	544	52.075511541398	17
8	554	52.496924879907	16
8	561	53.543063499621	17
8	605	58.243356274632	16
8	613	58.416101015867	15
8	620	58.461496643519	16
8	630	60.343729645991	17
8	632	60.990617777788	18
8	667	65.739006351316	17
8	679	66.692124160669	18
8	686	68.257031550324	19
8	706	69.857981309745	18
8	711	69.895407759755	17
8	728	70.942693024531	18
8	730	72.261719408316	19
8	732	74.600887854993	20
8	782	90.561199963372	19
8	832	92.08472256674	18
8	854	93.184539872023	19
8	856	93.227515300176	20
8	866	94.385224542427	19
8	881	95.231489365131	18
8	896	97.527618024941	17
8	913	97.773461677384	16
8	918	97.833944037626	15
8	930	98.219981054537	14
8	935	98.321078019547	13
8	963	99.645321943003	14
8	970	100.115267276683	15
8	972	100.165388264318	16
8	994	100.976662825472	17
8	1001	102.077154735276	18
8	1021	102.545733328544	17
8	1026	102.6426416462	16
8	1031	102.752739513561	15
8	1036	102.906270349195	14
8	1040	103.005907108385	15
8	1075	107.143009578721	16
8	1077	108.354621305749	17
8	1097	111.271814241538	16
8	1109	112.018501625154	17
8	1124	112.854651102297	16
8	1194	121.059821370708	15
8	1206	121.984315184943	14
8	1226	122.733354902638	15
8	1233	125.591229271589	16
8	1267	130.018216094673	17
8	1277	131.777216219116	18
8	1279	131.830194254034	19
8	1284	131.918429976218	18
8	1289	131.960037015084	17
8	1296	132.553093662521	18
8	1316	133.684285348987	17
8	1333	135.073195629964	18
8	1335	135.305072336173	19
8	1337	144.154196279097	20
8	1357	146.300987228502	19
8	1437	158.678168538601	18
8	1442	158.7122564213	17
8	1449	162.110421578459	18
8	1451	164.791176597424	19
8	1478	169.717560512724	20
8	1500	175.40951113731	19
8	1505	175.481835452853	18
8	1513	175.490883672991	17
8	1525	176.63247727401	18
8	1542	178.119722362743	17
8	1550	178.184453448397	16
8	1567	180.755466198704	17
8	1577	182.825328124269	16
8	1584	183.730319219088	17
8	1589	186.645748715986	16
8	1609	187.224185067794	15
8	1616	188.655595130742	16
8	1618	189.600351838937	17
8	1635	193.842375881166	18
8	1650	195.73648726865	17
8	1672	198.333574335661	18
8	1707	203.862364870166	17
8	1727	206.030788751767	16
8	1739	208.098257778666	17
8	1741	208.469902017672	18
8	1773	214.788795247666	19
8	1778	215.615790364555	18
8	1785	218.129301129179	19
8	1810	225.033804369103	18
8	1852	234.726065746664	19
8	1854	234.840249174211	20
8	1864	242.27929951326	19
8	1889	244.576887077038	18
8	1919	249.579464608254	17
8	1926	249.75381578519	18
8	1936	250.95414856231	17
8	1946	251.094672145332	16
8	1968	254.936075230104	17
8	1972	256.938670050879	18
8	1987	262.928471689595	19
8	1997	265.73875148956	18
8	2001	265.747822353571	19
8	2019	267.26692223828	18
8	2029	267.424514023882	17
8	2039	269.806774865406	16
8	2054	271.525353055764	15
8	2064	271.627295307849	14
8	2074	272.529636398568	13
8	2086	275.026165547975	14
8	2088	277.336733687492	15
8	2090	279.328372538595	16
8	2107	282.142474646137	17
8	2114	286.95174319953	18
8	2116	291.515140807247	19
8	2118	293.088286325612	20
8	2128	294.261439753564	19
8	2133	294.27393573819	18
8	2142	294.475447975412	19
8	2160	295.996240975631	18
8	2165	295.999276613165	17
8	2172	296.406522036484	18
8	2197	300.767262107771	17
8	2208	301.911206392143	18
8	2251	303.464820254383	17
8	2256	303.50386097853	16
8	2264	303.640540737139	15
8	2269	303.760816218888	14
8	2274	303.928220633686	13
8	2278	304.002588099393	14
8	2281	304.042500020783	13
8	2288	304.198465667572	14
8	2293	304.44040633127	13
8	2300	304.58613530673	14
8	2307	306.232373426456	15
8	2309	306.775321548252	16
8	2314	306.891479974828	15
8	2320	306.902338285123	16
8	2331	307.5780174344	15
8	2338	308.194087401966	16
8	2348	310.090490355221	15
8	2352	310.139056099877	16
8	2362	311.051407172197	15
8	2377	311.305265139676	16
8	2387	311.451798923666	15
8	2407	311.88170305858	14
8	2414	311.970921862621	13
8	2424	312.591665926043	14
8	2441	314.113149329915	15
8	2446	314.805846246972	14
8	2473	319.195828558491	15
8	2478	320.080181381847	14
8	2485	320.58456142764	15
8	2490	320.911482779366	14
8	2502	321.916488837113	15
8	2507	322.361814257073	14
8	2514	322.706586263089	15
8	2519	322.961108532114	14
8	2524	323.052648264529	13
8	2549	324.128462509467	12
8	2556	324.282677842953	13
8	2563	324.96516101212	14
8	2568	326.6079813581	13
8	2578	326.767574628358	12
8	2583	326.854907638622	11
8	2588	326.864109157877	10
8	2593	327.049515427992	9
8	2597	327.289854818565	10
8	2622	328.344116098156	9
8	2626	328.726086035538	10
8	2634	329.256537798133	11
8	2654	331.531301136813	10
8	2661	331.572530138676	11
8	2666	331.963557330376	10
8	2673	332.295489458456	11
8	2675	332.504672134437	12
8	2680	332.809922503568	11
8	2694	333.624156964511	12
8	2699	335.082086207622	13
8	2709	335.98145492884	12
8	2735	336.903689873227	13
8	2752	337.300970099872	14
8	2758	337.633911974383	13
8	2783	340.962973111825	12
8	2795	341.607931653239	13
8	2824	342.769421393077	14
8	2829	343.400122435066	15
8	2849	345.191177186643	14
8	2856	345.29376459437	15
8	2868	347.811936887942	16
8	2870	348.697989926894	17
8	2875	349.871165572949	16
8	2887	350.571899317084	17
8	2892	350.63003811613	16
8	2897	350.653076300354	15
8	2904	352.522550604715	16
8	2906	355.65286616216	17
8	2918	357.037610421156	18
8	2923	357.726091296149	17
8	2928	357.744727150077	16
8	2945	358.86384384544	17
8	2965	360.57626257819	16
8	2972	361.100948651747	17
8	2977	361.83387970813	16
8	3027	365.157461374402	15
8	3032	365.309168702364	14
8	3044	366.722620065135	15
8	3046	367.221072243903	16
8	3051	367.708359338635	15
8	3063	369.268506001919	16
8	3070	370.251409468796	17
8	3082	372.029056833872	18
8	3087	372.528675293203	17
8	3109	376.205711258584	18
8	3111	379.864454436962	19
8	3141	389.198937421597	18
8	3151	389.451444013486	17
8	3211	395.227257367233	16
8	3256	398.914060296192	15
8	3301	403.433885402499	14
8	3305	403.455541190134	15
8	3322	404.062022235299	16
8	3332	405.99672485736	17
8	3343	407.741345711763	18
8	3346	407.746051535769	17
8	3409	415.271376263843	16
8	3431	416.236194098238	17
8	3433	416.742600916514	18
8	3440	417.30152391063	17
8	3465	418.905475680791	18
8	3480	420.824874066951	17
8	3487	423.734309337415	18
8	3489	425.656403390161	19
8	3494	429.20769009165	18
8	3501	430.814462613147	19
8	3511	433.853507710325	18
8	3526	434.080975954147	17
8	3536	434.538517161466	16
8	3543	434.996012714878	17
8	3545	435.785243503522	18
8	3552	437.025089327918	19
8	3582	441.298815055077	18
8	3587	441.35421260192	17
8	3592	441.373648396083	16
8	3597	441.467448475081	15
8	3602	441.559067813359	14
8	3614	441.949961719309	15
8	3616	442.029815137653	16
8	3628	443.122062090808	15
8	3663	444.36961537087	16
8	3665	444.459033268715	17
8	3685	445.465428484056	16
8	3700	448.486997250671	15
8	3719	448.863271598287	16
8	3732	449.300101014782	15
8	3747	450.270396617284	14
8	3754	450.778437457112	15
8	3767	453.944315442397	16
8	3781	454.270364949301	15
8	3811	455.105344290906	14
8	3828	456.250146026094	15
8	3830	456.606834144825	16
8	3832	457.219003520543	17
8	3891	464.075539844686	16
8	3901	464.401183253152	15
8	3905	464.451568803279	16
8	3918	465.202924460886	15
8	3938	465.450850502891	16
8	3963	470.063087446724	17
8	3965	470.873237844394	18
8	3985	478.08836189236	17
8	4000	479.110061636306	16
8	4007	479.988347692667	17
8	4014	480.412695026176	18
8	4061	486.374636011918	19
8	4076	490.561184269017	18
8	4101	491.60045499689	17
8	4116	492.799165493787	16
8	4123	492.95331266826	17
8	4165	498.311474023814	18
8	4177	502.347318432906	19
8	4182	502.442175980207	18
8	4189	504.687025098113	19
8	4191	511.83804522337	20
8	4266	535.239240639391	19
8	4271	535.28446910339	18
8	4276	535.478069587494	17
8	4283	535.705410597653	18
8	4300	537.860180302237	19
8	4320	541.860741354029	18
8	4332	542.064619284431	17
8	4337	542.172212230188	16
8	4347	542.658295700504	17
8	4349	542.744214484508	18
8	4371	543.7907758857	19
8	4383	544.65399690778	18
8	4413	549.291157465434	19
8	4428	550.959586796959	18
8	4488	556.326267655278	17
8	4503	556.570304476072	16
8	4523	557.889570483341	15
8	4528	557.96101017608	14
8	4533	558.035981431563	13
8	4538	558.047056615319	12
8	4543	558.218957211411	11
8	4550	559.042308081825	12
8	4552	559.821942697512	13
8	4556	560.189386362686	14
8	4559	560.369878310379	13
8	4564	560.379305658666	12
8	4571	560.488245349864	13
8	4591	562.62596192208	12
8	4598	563.05021536603	13
8	4610	563.869145901957	14
8	4634	566.597923043029	15
8	4639	566.838601588567	16
8	4649	567.531539078774	15
8	4661	568.246618499603	14
8	4674	568.628895506159	13
8	4684	568.787944004075	12
8	4704	570.132833082192	11
8	4729	572.984928404291	10
8	4736	573.218513509402	11
8	4738	573.511794950212	12
8	4740	576.160322741411	13
8	4744	576.732359399068	14
8	4747	576.762551042643	13
8	4759	578.008354198141	14
8	4766	578.939919680443	15
8	4783	581.359441453037	16
8	4818	584.793168157298	15
8	4828	585.146805227459	14
8	4843	585.942845081013	13
8	4860	587.726658338263	14
8	4862	587.841510189648	15
8	4872	590.173416467182	14
8	4897	591.46638190506	13
8	4912	591.951775457641	12
8	4917	592.001888248304	11
8	4949	597.339570234461	10
8	4964	597.747625239823	11
8	4966	597.852631801487	12
8	4968	598.152291214324	13
8	4970	598.320021667425	14
8	4972	598.787287900052	15
8	4987	599.986430267435	14
8	5007	601.693604112137	13
8	5014	602.852508959586	14
8	5016	603.409996524156	15
8	5061	605.150635154379	14
8	5071	605.679408868224	13
8	5093	607.627871145496	14
8	5115	609.792813426926	15
8	5120	616.221999811506	14
8	5130	616.725278692392	13
8	5140	617.252151990842	12
8	5165	618.320688685115	11
8	5172	618.545248274435	12
8	5204	619.94740363174	13
8	5206	620.89466372032	14
8	5208	620.951474766494	15
8	5210	621.632730430555	16
8	5217	623.237026855818	17
8	5247	625.806449382828	16
8	5279	629.519650999619	17
8	5294	630.914447078528	16
8	5324	632.067766390623	15
8	5339	632.458503405622	14
8	5359	633.190180542287	13
8	5366	633.306294071353	12
8	5391	634.438897536704	13
8	5401	634.706397495437	12
8	5408	635.775891499584	13
8	5420	637.364843348777	14
8	5431	637.84351943314	15
8	5437	637.862388317706	14
8	5454	638.749119740661	15
8	5479	640.227260040021	14
8	5486	640.821735165198	15
8	5488	641.170166743594	16
8	5518	643.571474836803	15
8	5555	647.957822781813	16
8	5560	648.104564047408	15
8	5575	648.52417466583	14
8	5582	650.466244966221	15
8	5601	652.630556268116	16
8	5604	652.678549034348	15
8	5619	652.975733147231	14
8	5629	653.563045355799	13
8	5636	654.530997501775	14
8	5641	657.865800399748	13
8	5653	659.828533435723	14
8	5680	660.704713404716	13
8	5700	661.335770099334	14
8	5702	661.396887989826	15
8	5709	662.645041060646	16
8	5716	663.444289969079	17
8	5723	664.280276368755	18
8	5758	666.609647593134	17
8	5770	667.414906751875	18
8	5802	669.695381294437	19
8	5812	669.981297837966	18
8	5821	670.174112372618	19
8	5841	671.505794971548	20
8	5876	675.234576226994	19
8	5896	676.493081304294	18
8	5903	677.181265318576	19
8	5910	684.975061043166	20
8	5920	686.387099975105	19
8	5932	689.320407681441	20
8	5972	705.733385224974	19
8	5979	706.011119535001	20
8	6014	708.178052666568	19
8	6054	716.859528486897	18
8	6061	718.560431610088	19
8	6081	723.081049094261	18
8	6086	723.179446599902	17
8	6116	727.064984577511	16
8	6128	728.701390119922	17
8	6155	729.364313134475	16
8	6195	734.341218506541	17
8	6210	736.044711722775	16
8	6217	736.566646220627	17
8	6224	741.050950133458	18
8	6229	741.390971855983	17
8	6256	745.27788939663	18
8	6283	747.238925948165	19
8	6292	747.743960924071	20
8	6300	748.887070271202	19
8	6312	752.098893181463	20
8	6362	760.787086316718	19
8	6384	764.21676060517	20
8	6416	769.472185954632	19
8	6436	770.097353835543	18
8	6449	770.63780544061	17
8	6456	770.747979473452	16
8	6464	770.910715567985	15
8	6474	771.106025878164	14
8	6486	771.682674613721	15
8	6498	773.827045305582	16
8	6510	774.426889119137	17
8	6525	775.859770671571	16
8	6537	776.293087767956	17
8	6567	778.873239597508	16
8	6574	779.177106820655	17
8	6586	780.359328359996	18
8	6626	783.783606949131	17
8	6633	783.997698151282	16
8	6651	784.372072583068	15
8	6663	785.364944368522	16
8	6680	786.512279147363	17
8	6695	787.613186267322	16
8	6705	787.97631440756	15
8	6725	789.306466022	14
8	6740	790.051351312811	13
8	6757	790.934816035749	12
8	6762	791.114173947089	11
8	6766	791.213924323584	12
8	6772	791.289173103252	11
8	6799	793.448926891837	12
8	6804	795.525517730775	11
8	6811	795.902824771583	12
8	6833	797.835831454366	13
8	6838	798.171387125185	12
8	6843	798.18163983215	11
8	6858	798.415257522631	10
8	6862	798.430334401757	11
8	6872	798.62229385613	12
8	6884	799.395949502899	13
8	6894	800.252321902816	12
8	6906	800.490138624517	11
8	6911	800.496827929964	10
8	6934	801.292016576082	9
8	6939	801.296463819223	8
8	6946	801.665602569328	9
8	6956	801.920985237404	8
8	6998	803.587506668236	9
8	7000	803.599059883384	10
8	7020	804.751624296082	9
8	7042	807.007277052064	10
8	7047	808.926636263113	9
8	7052	808.993514408459	8
8	7057	809.360464239673	7
8	7061	809.458807294969	8
8	7066	809.762670034098	9
8	7076	810.486397252391	8
8	7086	810.872882303938	7
8	7098	812.728228701677	8
8	7100	813.152626816739	9
8	7102	813.787141992384	10
8	7104	813.8004181818	11
8	7106	814.274270707356	12
8	7108	817.308985654507	13
8	7110	817.544693131713	14
8	7127	820.38569809013	15
8	7129	822.001945693215	16
8	7131	822.337755787037	17
8	7151	825.457798318995	16
8	7168	826.220521041137	17
8	7213	830.743643115262	16
8	7225	831.730180010523	17
8	7235	832.090390791545	16
8	7247	834.479110423384	17
8	7252	836.130883923957	16
8	7269	839.872268915366	17
8	7271	840.759950957051	18
8	7281	843.71349544484	17
8	7301	845.150492647046	16
8	7313	845.676595457936	17
8	7328	848.320716317321	16
8	7335	848.455248547134	15
8	7353	849.054898822318	14
8	7358	849.379070037505	13
8	7362	849.379728947485	14
8	7365	849.479288050043	13
8	7382	851.49210664615	14
8	7412	855.265916335908	13
8	7437	857.976653469026	12
8	7449	859.729681904062	13
8	7451	861.382655776495	14
8	7456	862.620991282945	13
8	7471	863.161439987785	12
8	7478	867.227602241318	13
8	7485	869.404140387527	14
8	7490	869.598081575794	13
8	7497	870.36141129539	14
8	7506	870.934370293842	15
8	7514	871.664401200664	14
8	7521	873.100078864913	15
8	7523	873.61522263063	16
8	7550	879.588121708557	17
8	7590	882.770308577761	16
8	7610	883.538615510306	15
8	7615	883.652936206145	14
8	7620	883.985004860125	13
8	7642	884.476554281912	14
8	7647	884.756378457338	13
8	7654	885.144642592699	14
8	7659	885.895659701816	13
8	7668	886.724673984264	14
8	7708	888.431876830265	13
8	7723	889.426632869594	14
8	7725	890.032641162715	15
8	7727	891.747754823619	16
8	7729	892.18761799044	17
8	7746	893.811346277201	18
8	7751	894.252890270725	17
8	7773	897.822159468648	18
8	7785	899.70084486519	19
8	7797	904.777180608102	20
8	7877	913.408860924336	19
8	7892	914.286509844734	18
8	7897	914.473458015459	17
8	7922	916.568795967748	16
8	7929	916.756437684345	17
8	7931	917.838019091063	18
8	7933	917.890296350227	19
8	7938	921.980136448733	18
8	7958	923.343918089976	17
8	7963	923.349432566518	16
8	7990	929.917899572221	17
8	8000	934.780527640994	16
8	8007	935.234806628601	17
8	8012	936.124236446818	16
8	8017	936.154069477026	15
8	8022	936.262359687015	14
8	8027	936.376626029071	13
8	8034	937.000864464254	14
8	8056	941.908970476844	15
8	8058	944.72661633925	16
8	8060	947.247194551059	17
8	8062	948.125942745114	18
8	8114	955.88863722187	17
8	8122	955.908753222158	16
8	8139	957.077983674938	17
8	8166	967.873454934715	18
8	8178	972.741434646306	19
8	8180	974.274999723883	20
8	8195	985.940588143456	19
8	8217	987.590782590473	18
8	8222	987.633363712443	17
8	8277	989.867976157432	16
8	8287	990.052034156331	15
8	8322	991.554836804847	16
8	8324	991.564139915337	17
8	8339	996.056879347776	16
8	8359	998.869677506557	15
8	8363	998.95896091227	16
8	8371	999.234741964633	15
8	8375	999.438266349809	16
8	8403	1003.786324236775	15
8	8410	1008.821100346946	16
8	8412	1008.947766756802	17
8	8414	1013.511461371781	18
8	8419	1018.859685075445	17
8	8429	1021.398893279689	16
8	8434	1021.42015316564	15
8	8439	1021.534010151388	14
8	8444	1021.564271656007	13
8	8454	1021.78662742244	12
8	8461	1023.629185059994	13
8	8463	1024.948805777343	14
8	8470	1025.630445261598	15
8	8472	1025.888851017499	16
8	8484	1027.903267490739	17
8	8499	1030.147138640064	16
8	8526	1031.9680176045	15
8	8539	1032.088404929062	14
8	8546	1032.196535312563	15
8	8563	1035.612332167642	16
8	8575	1038.05533985095	17
8	8577	1038.205470508221	18
8	8579	1041.14746574365	19
8	8591	1041.947521169227	18
8	8599	1042.286940426555	17
8	8609	1042.796241335662	16
8	8626	1044.037887285811	17
8	8628	1045.278421534973	18
8	8630	1046.699008564776	19
8	8635	1047.1727730142	18
8	8642	1047.62153637523	17
8	8650	1047.662599581575	16
8	8655	1047.799014044189	15
8	8659	1047.81603041714	16
8	8664	1048.468352707357	17
8	8696	1056.501176139124	18
8	8708	1057.075538305829	19
8	8778	1066.563842104187	18
8	8817	1072.647507776462	19
8	8844	1075.017026253496	20
8	8867	1077.237215759071	19
8	8897	1082.222388543707	18
8	8919	1087.680653908718	19
8	8936	1094.364075954326	20
8	8971	1101.268507541975	19
8	8976	1101.342210090785	18
8	8988	1103.995158283647	19
8	9008	1108.304711290847	18
8	9040	1110.348463500568	17
8	9049	1110.674233340433	16
8	9069	1111.017644662893	15
8	9082	1111.334748617876	14
8	9097	1111.745580731384	13
8	9110	1112.152397734471	12
8	9137	1112.96794343449	13
8	9144	1113.251354686016	14
8	9147	1113.29029538483	13
8	9154	1113.431186119683	14
8	9196	1117.952006886756	15
8	9198	1118.881780667873	16
8	9229	1121.21664720148	17
8	9245	1122.250774293028	16
8	9262	1123.209130056334	17
8	9267	1123.301375945907	16
8	9277	1123.422171933727	15
8	9281	1123.510324412959	16
8	9289	1123.634170558545	15
8	9311	1125.299833392342	16
8	9321	1125.885913955554	15
8	9326	1125.93508236767	14
8	9343	1127.043197216983	15
8	9360	1131.117070808459	16
8	9362	1132.625125522122	17
8	9364	1132.813407091359	18
8	9369	1136.404132996798	17
8	9376	1137.093027665575	18
8	9381	1137.523417440026	17
8	9421	1140.617489664862	16
8	9428	1140.830573524607	15
8	9447	1141.339309310461	16
8	9465	1143.142370336004	17
8	9470	1143.335934755541	16
8	9475	1143.802571268347	15
8	9502	1145.354834856917	16
8	9504	1149.357986461961	17
8	9516	1151.130227103114	16
8	9520	1151.192687960622	17
8	9538	1151.995327741606	18
8	9543	1152.797577462567	17
8	9565	1155.561047542272	18
8	9585	1157.748960117496	17
8	9596	1158.119547906596	18
8	9599	1158.203096424591	17
8	9652	1164.614815150049	16
8	9659	1164.733926437516	17
8	9698	1167.590538468775	18
8	9701	1167.725790757979	17
8	9723	1173.494464769012	18
8	9738	1174.994723897275	17
8	9753	1176.467104682997	16
8	9765	1183.519466115973	17
8	9767	1184.872494593139	18
8	9787	1188.529184159862	17
8	9792	1188.574504443442	16
8	9797	1188.596590732156	15
8	9807	1190.302915764201	14
8	9814	1190.468821834939	15
8	9836	1194.882039251198	14
8	9856	1197.267001521587	13
8	9866	1197.485982702805	12
8	9878	1198.021044848221	13
8	9885	1198.365380250969	14
8	9898	1198.714729425204	13
8	9907	1199.319466324111	14
8	9910	1199.325632306751	13
8	9927	1199.776777531408	12
8	9940	1200.456082453133	11
8	9947	1202.186782146373	12