version 2
run Multitask1-0-20141230-20:30:51-6420
attr configname Multitask1
attr datetime 20141230-20:30:51
attr experiment Multitask1
attr inifile omnetpp.ini
attr iterationvars ""
attr iterationvars2 $repetition=0
attr measurement ""
attr network Multitask
attr processid 6420
attr repetition 0
attr replication #0
attr resultdir results
attr runnumber 0
attr seedset 0

vector 8  Multitask.allocateQ2  queueLength:vector  ETV
attr interpolationmode  sample-hold
attr title  "queue length, vector"
vector 11  Multitask.queue3  queueLength:vector  ETV
attr interpolationmode  sample-hold
attr title  "queue length, vector"
vector 13  Multitask.queue3  busy:vector  ETV
attr interpolationmode  sample-hold
attr title  "server busy state, vector"
vector 15  Multitask.queue4  queueLength:vector  ETV
attr interpolationmode  sample-hold
attr title  "queue length, vector"
vector 17  Multitask.queue4  busy:vector  ETV
attr interpolationmode  sample-hold
attr title  "server busy state, vector"
vector 19  Multitask.queue5  queueLength:vector  ETV
attr interpolationmode  sample-hold
attr title  "queue length, vector"
vector 21  Multitask.queue5  busy:vector  ETV
attr interpolationmode  sample-hold
attr title  "server busy state, vector"
vector 23  Multitask.queue6  queueLength:vector  ETV
attr interpolationmode  sample-hold
attr title  "queue length, vector"
vector 25  Multitask.queue6  busy:vector  ETV
attr interpolationmode  sample-hold
attr title  "server busy state, vector"
vector 27  Multitask.queue7  queueLength:vector  ETV
attr interpolationmode  sample-hold
attr title  "queue length, vector"
vector 29  Multitask.queue7  busy:vector  ETV
attr interpolationmode  sample-hold
attr title  "server busy state, vector"
vector 30  Multitask.resourceCPU  amount:vector  ETV
attr interpolationmode  sample-hold
attr title  "available resource, vector"
vector 12  Multitask.queue3  queueingTime:vector  ETV
attr interpolationmode  none
attr title  "queueing time at dequeue, vector"
attr unit  s
vector 28  Multitask.queue7  queueingTime:vector  ETV
attr interpolationmode  none
attr title  "queueing time at dequeue, vector"
attr unit  s
vector 16  Multitask.queue4  queueingTime:vector  ETV
attr interpolationmode  none
attr title  "queueing time at dequeue, vector"
attr unit  s
vector 20  Multitask.queue5  queueingTime:vector  ETV
attr interpolationmode  none
attr title  "queueing time at dequeue, vector"
attr unit  s
vector 24  Multitask.queue6  queueingTime:vector  ETV
attr interpolationmode  none
attr title  "queueing time at dequeue, vector"
attr unit  s
vector 9  Multitask.allocateQ2  queueingTime:vector  ETV
attr interpolationmode  none
attr title  "queueing time at dequeue, vector"
attr unit  s
vector 0  Multitask.sink  lifeTime:vector  ETV
attr interpolationmode  none
attr title  "lifetime of arrived jobs, vector"
attr unit  s
vector 1  Multitask.sink  totalQueueingTime:vector  ETV
attr interpolationmode  none
attr title  "the total time spent in queues by arrived jobs, vector"
attr unit  s
vector 4  Multitask.sink  queuesVisited:vector  ETV
attr interpolationmode  none
attr title  "the total number of queues visited by arrived jobs, vector"
vector 3  Multitask.sink  totalServiceTime:vector  ETV
attr interpolationmode  none
attr title  "the total time spent  by arrived jobs, vector"
attr unit  s
vector 2  Multitask.sink  totalDelayTime:vector  ETV
attr interpolationmode  none
attr title  "the total time spent in delay nodes by arrived jobs, vector"
attr unit  s
vector 5  Multitask.sink  delaysVisited:vector  ETV
attr interpolationmode  none
attr title  "the total number of delays visited by arrived jobs, vector"
vector 6  Multitask.sink  generation:vector  ETV
attr interpolationmode  none
attr title  "the generation of the arrived jobs, vector"
0	12602	1513.891235510862	1513.8912355109
0	12613	1514.251076428994	1514.251076429
0	12641	1523.014552542904	1523.0145525429
0	12697	1532.214385832684	1532.2143858327
0	12750	1541.779226474583	1541.7792264746
0	12764	1542.325474781782	1542.3254747818
0	12800	1548.073820970181	1548.0738209702
0	12806	1548.099908738795	1548.0999087388
0	12842	1550.77744180776	1550.7774418078
0	12853	1550.955467111818	1550.9554671118
0	12859	1551.118352308337	1551.1183523083
0	12870	1552.874127621647	1552.8741276216
0	12876	1552.911614003456	1552.9116140035
0	12932	1559.44998497124	1559.4499849712
0	12963	1567.878430115642	1567.8784301156
0	12994	1572.254043059849	1572.2540430598
0	13000	1572.361160477684	1572.3611604777
0	13008	1572.630049737668	1572.6300497377
0	13014	1572.658841949218	1572.6588419492
0	13022	1572.811924277436	1572.8119242774
0	13027	1572.92763622826	1572.9276362283
0	13055	1575.882260555777	1575.8822605558
0	13137	1583.40828256858	1583.4082825686
0	13149	1591.650270496619	1591.6502704966
0	13161	1600.484269110537	1600.4842691105
1	12602	1513.891235510862	1213.2364061596
1	12613	1514.251076428994	1205.481927843
1	12641	1523.014552542904	1162.8349823822
1	12697	1532.214385832684	1226.5098516575
1	12750	1541.779226474583	1201.8822402216
1	12764	1542.325474781782	1183.7368860345
1	12800	1548.073820970181	1271.8864950303
1	12806	1548.099908738795	1175.6585338753
1	12842	1550.77744180776	1186.97438354
1	12853	1550.955467111818	1183.7224977592
1	12859	1551.118352308337	1264.5074243282
1	12870	1552.874127621647	1254.8271248514
1	12876	1552.911614003456	1287.4164897874
1	12932	1559.44998497124	1162.5074622002
1	12963	1567.878430115642	1274.8293537475
1	12994	1572.254043059849	1276.0182883044
1	13000	1572.361160477684	1212.4696283721
1	13008	1572.630049737668	1250.5397401716
1	13014	1572.658841949218	1238.6505260311
1	13022	1572.811924277436	1250.1936052949
1	13027	1572.92763622826	1262.2741630532
1	13055	1575.882260555777	1244.0625129445
1	13137	1583.40828256858	1243.2026080852
1	13149	1591.650270496619	1183.1381177225
1	13161	1600.484269110537	1289.1999930816
2	12602	1513.891235510862	0
2	12613	1514.251076428994	0
2	12641	1523.014552542904	0
2	12697	1532.214385832684	0
2	12750	1541.779226474583	0
2	12764	1542.325474781782	0
2	12800	1548.073820970181	0
2	12806	1548.099908738795	0
2	12842	1550.77744180776	0
2	12853	1550.955467111818	0
2	12859	1551.118352308337	0
2	12870	1552.874127621647	0
2	12876	1552.911614003456	0
2	12932	1559.44998497124	0
2	12963	1567.878430115642	0
2	12994	1572.254043059849	0
2	13000	1572.361160477684	0
2	13008	1572.630049737668	0
2	13014	1572.658841949218	0
2	13022	1572.811924277436	0
2	13027	1572.92763622826	0
2	13055	1575.882260555777	0
2	13137	1583.40828256858	0
2	13149	1591.650270496619	0
2	13161	1600.484269110537	0
3	12602	1513.891235510862	89.918770503235
3	12613	1514.251076428994	98.323478867056
3	12641	1523.014552542904	134.28353867392
3	12697	1532.214385832684	92.537426297578
3	12750	1541.779226474583	146.84175628333
3	12764	1542.325474781782	93.226223170744
3	12800	1548.073820970181	90.976526348809
3	12806	1548.099908738795	124.75985421892
3	12842	1550.77744180776	161.14826411704
3	12853	1550.955467111818	142.37122993837
3	12859	1551.118352308337	101.36403998362
3	12870	1552.874127621647	70.703310726865
3	12876	1552.911614003456	119.75785677538
3	12932	1559.44998497124	210.5335009794
3	12963	1567.878430115642	151.21444179623
3	12994	1572.254043059849	126.26541547236
3	13000	1572.361160477684	117.79898774161
3	13008	1572.630049737668	183.82932396216
3	13014	1572.658841949218	95.809144065211
3	13022	1572.811924277436	101.02566859255
3	13027	1572.92763622826	89.578588893895
3	13055	1575.882260555777	98.346871583637
3	13137	1583.40828256858	177.36765550371
3	13149	1591.650270496619	87.009781297678
3	13161	1600.484269110537	100.12573728512
4	12602	1513.891235510862	51
4	12613	1514.251076428994	48
4	12641	1523.014552542904	49
4	12697	1532.214385832684	35
4	12750	1541.779226474583	52
4	12764	1542.325474781782	39
4	12800	1548.073820970181	45
4	12806	1548.099908738795	51
4	12842	1550.77744180776	56
4	12853	1550.955467111818	41
4	12859	1551.118352308337	45
4	12870	1552.874127621647	23
4	12876	1552.911614003456	40
4	12932	1559.44998497124	68
4	12963	1567.878430115642	61
4	12994	1572.254043059849	72
4	13000	1572.361160477684	51
4	13008	1572.630049737668	64
4	13014	1572.658841949218	44
4	13022	1572.811924277436	53
4	13027	1572.92763622826	39
4	13055	1575.882260555777	60
4	13137	1583.40828256858	56
4	13149	1591.650270496619	46
4	13161	1600.484269110537	40
5	12602	1513.891235510862	0
5	12613	1514.251076428994	0
5	12641	1523.014552542904	0
5	12697	1532.214385832684	0
5	12750	1541.779226474583	0
5	12764	1542.325474781782	0
5	12800	1548.073820970181	0
5	12806	1548.099908738795	0
5	12842	1550.77744180776	0
5	12853	1550.955467111818	0
5	12859	1551.118352308337	0
5	12870	1552.874127621647	0
5	12876	1552.911614003456	0
5	12932	1559.44998497124	0
5	12963	1567.878430115642	0
5	12994	1572.254043059849	0
5	13000	1572.361160477684	0
5	13008	1572.630049737668	0
5	13014	1572.658841949218	0
5	13022	1572.811924277436	0
5	13027	1572.92763622826	0
5	13055	1575.882260555777	0
5	13137	1583.40828256858	0
5	13149	1591.650270496619	0
5	13161	1600.484269110537	0
6	12602	1513.891235510862	0
6	12613	1514.251076428994	0
6	12641	1523.014552542904	0
6	12697	1532.214385832684	0
6	12750	1541.779226474583	0
6	12764	1542.325474781782	0
6	12800	1548.073820970181	0
6	12806	1548.099908738795	0
6	12842	1550.77744180776	0
6	12853	1550.955467111818	0
6	12859	1551.118352308337	0
6	12870	1552.874127621647	0
6	12876	1552.911614003456	0
6	12932	1559.44998497124	0
6	12963	1567.878430115642	0
6	12994	1572.254043059849	0
6	13000	1572.361160477684	0
6	13008	1572.630049737668	0
6	13014	1572.658841949218	0
6	13022	1572.811924277436	0
6	13027	1572.92763622826	0
6	13055	1575.882260555777	0
6	13137	1583.40828256858	0
6	13149	1591.650270496619	0
6	13161	1600.484269110537	0
8	0	0	0
8	100	5.755191968829	1
8	112	6.494463482508	2
8	114	6.538825672211	3
8	116	7.526741133128	4
8	118	7.872011399819	5
8	120	7.913197100402	6
8	122	7.958745045657	7
8	124	8.394328529002	8
8	131	8.985603884839	9
8	133	9.232231314707	10
8	145	9.770064263933	11
8	152	10.381593006638	12
8	154	12.559307580473	13
8	164	15.076592751638	12
8	169	15.115769832705	11
8	176	15.68896117623	12
8	183	16.722112003249	13
8	185	17.630189153453	14
8	197	18.596042120746	15
8	199	18.789640542027	16
8	201	19.515453358844	17
8	206	20.979240696258	16
8	213	22.235244220363	17
8	245	24.690402142295	18
8	265	25.764352603232	17
8	272	26.933906701156	18
8	277	27.975190904188	17
8	284	30.16399686926	18
8	291	31.968365371767	19
8	301	32.654086616185	18
8	308	33.149122799282	19
8	323	37.093671490634	18
8	338	38.216414775619	17
8	345	40.417773900271	18
8	350	40.702656836508	17
8	371	42.043424264236	18
8	402	44.900870599626	17
8	407	45.077444706867	16
8	449	49.51817956007	17
8	454	49.872139057889	16
8	476	52.494552107159	17
8	478	56.403786126591	18
8	503	60.653561940782	17
8	545	64.242834099479	18
8	547	64.44032464353	19
8	587	68.279152815803	18
8	592	68.514170544778	17
8	602	69.032255496554	16
8	609	70.144401212029	17
8	614	70.665724157317	16
8	619	70.718011160325	15
8	623	71.003592012836	16
8	638	72.107820530105	15
8	643	72.478816589295	14
8	666	73.416713916763	13
8	691	75.265138410805	12
8	696	75.334458387758	11
8	703	75.613349817017	12
8	733	77.959811884244	11
8	753	79.561395553097	10
8	778	81.14758118004	9
8	795	82.672396823146	10
8	810	84.562792355315	9
8	817	84.979959991754	10
8	819	85.260371206161	11
8	836	86.956757409179	12
8	838	87.344167453177	13
8	840	87.871544362414	14
8	842	88.538240986835	15
8	844	89.200841137822	16
8	846	91.473592905017	17
8	848	92.522966235446	18
8	888	98.423836405114	17
8	900	98.766626911166	18
8	925	100.218006619	17
8	932	100.749086588961	18
8	962	103.61084000487	17
8	967	103.844889200935	16
8	974	106.062820931293	17
8	976	106.850567803232	18
8	991	109.328324395347	17
8	998	109.493985339562	18
8	1030	111.878806827606	19
8	1032	112.836133353872	20
8	1077	128.952364833702	19
8	1152	134.130550277811	18
8	1157	134.436036255711	17
8	1172	135.383470633468	16
8	1202	136.727377970682	15
8	1229	140.316991154448	16
8	1243	142.060273097859	17
8	1256	142.710520219063	16
8	1263	142.807874312468	17
8	1268	143.463841418684	16
8	1283	144.748749173436	15
8	1297	146.532344852538	16
8	1300	146.787034783407	15
8	1305	146.890759292817	14
8	1312	147.062028865768	15
8	1327	147.679895752522	14
8	1332	147.719301509716	13
8	1337	148.03258445867	12
8	1352	148.629080859834	11
8	1362	148.753218947471	10
8	1379	149.447683917759	9
8	1383	149.461288675546	10
8	1389	149.72051446052	9
8	1416	152.064202564762	10
8	1418	152.519011310988	11
8	1420	152.666819081222	12
8	1422	153.236119695066	13
8	1429	154.309808079053	14
8	1439	155.616743335919	13
8	1449	156.385655104857	12
8	1479	158.548987198671	11
8	1483	158.568457430924	12
8	1490	159.55537554875	13
8	1493	159.585623632627	12
8	1498	159.679573831213	11
8	1515	160.003658478973	10
8	1535	160.644986621489	11
8	1545	160.794518867658	10
8	1560	161.811059938244	9
8	1565	161.86366301782	8
8	1569	161.902691230761	9
8	1571	162.021668940827	10
8	1584	163.553395884738	9
8	1591	163.67825711696	10
8	1605	164.742400851039	11
8	1620	165.522677146254	12
8	1622	165.529538393512	13
8	1626	165.636075688451	14
8	1638	167.392858678364	15
8	1643	169.031861382445	16
8	1670	171.464983759596	17
8	1672	172.04583880589	18
8	1687	176.424367681992	17
8	1694	178.842784591856	18
8	1714	183.188475585808	17
8	1729	185.559085190476	16
8	1769	186.799153763443	15
8	1779	187.377782170384	14
8	1786	187.876432502199	15
8	1788	188.644819669183	16
8	1790	190.842115445333	17
8	1804	191.524584359245	18
8	1817	191.972931428364	17
8	1874	195.700255461369	16
8	1887	196.189372847692	15
8	1891	196.199411485631	16
8	1916	199.106342273752	17
8	1923	200.4737831356	18
8	1928	202.116614618349	17
8	1933	202.149840680706	16
8	1953	202.878950285634	15
8	1958	202.948808386241	14
8	1968	203.203440741026	13
8	2002	206.574050403852	14
8	2009	208.08673893434	15
8	2014	208.491493120372	16
8	2046	214.540205754488	17
8	2051	215.11468483266	16
8	2068	217.699277319836	17
8	2073	218.88560606947	16
8	2100	221.517096717133	17
8	2110	222.430412458266	16
8	2125	222.914945289931	15
8	2140	223.577070209178	14
8	2150	223.852265680441	13
8	2160	224.321877479047	12
8	2174	224.940038965528	13
8	2195	226.235521943886	14
8	2201	226.482579778912	13
8	2206	226.53010072279	12
8	2216	226.921246513077	11
8	2286	230.88203233244	12
8	2293	234.398089054017	13
8	2297	235.774788101264	14
8	2302	237.4325565874	15
8	2304	237.897379128791	16
8	2309	239.546851002873	15
8	2321	242.72454441669	16
8	2323	244.657274361273	17
8	2348	247.668502907603	16
8	2360	252.917978966529	17
8	2369	256.577040926515	18
8	2389	258.300192915733	19
8	2394	258.370913383251	18
8	2414	263.549301393488	17
8	2431	265.258021822812	18
8	2433	265.369027006609	19
8	2455	269.796558897206	18
8	2462	269.90980610473	19
8	2470	271.053062637354	18
8	2492	274.023456777876	19
8	2497	274.273861574047	18
8	2504	275.749142958639	19
8	2516	276.760138256978	18
8	2521	276.811164172013	17
8	2544	278.098594749754	16
8	2556	279.466398822853	17
8	2561	280.578880857283	16
8	2568	280.771961909209	17
8	2588	284.175736472014	16
8	2593	284.207836237803	15
8	2610	284.328681429241	16
8	2612	284.46044745581	17
8	2614	286.678269276044	18
8	2619	288.286782199247	17
8	2626	288.958721257691	18
8	2636	294.868546220174	17
8	2656	295.438226590753	16
8	2683	299.749244862914	17
8	2698	300.119571829303	16
8	2705	300.542227416832	17
8	2710	301.03382428552	16
8	2715	301.10813785095	15
8	2727	302.357459550658	16
8	2731	302.849830062015	17
8	2734	302.942861400752	16
8	2766	304.910068287045	17
8	2773	305.779595326631	18
8	2788	306.944940020828	17
8	2840	312.500148663682	18
8	2872	316.464979991777	17
8	2877	316.650038556435	16
8	2890	316.883488680822	15
8	2895	316.938768614172	14
8	2930	318.880973407531	13
8	2937	318.955936852016	14
8	2939	320.129374470558	15
8	2941	322.107781114299	16
8	2948	325.337103628024	17
8	2983	331.726562269701	16
8	2988	331.93402750794	15
8	3013	333.37540984226	14
8	3018	333.430818256744	13
8	3025	333.504296035959	14
8	3027	334.041461214669	15
8	3034	334.322113102438	16
8	3036	334.381512696179	17
8	3046	335.106864077362	16
8	3053	335.765955317126	17
8	3073	340.288094351632	16
8	3083	340.809545545189	15
8	3088	340.863692794555	14
8	3095	341.997740016477	15
8	3102	344.413599643592	16
8	3109	345.364103055475	17
8	3111	346.910253457949	18
8	3113	347.568323181573	19
8	3133	350.543763250149	18
8	3145	353.70994492965	19
8	3150	357.807939120392	18
8	3175	359.779718356837	17
8	3212	362.390624756698	18
8	3227	363.314903012852	17
8	3251	364.415090054568	18
8	3259	365.369736518791	17
8	3263	365.419072045189	18
8	3275	366.260421953669	19
8	3313	372.884278680917	18
8	3318	372.969970991065	17
8	3323	373.220743224591	16
8	3333	375.583970430511	15
8	3383	377.204300006566	14
8	3390	377.292515029974	15
8	3410	383.270061205473	14
8	3430	384.593809496751	13
8	3435	385.09001277124	12
8	3440	385.258149210764	11
8	3447	385.464822685796	12
8	3461	386.488191851725	13
8	3468	386.734834268338	14
8	3478	387.320793497297	15
8	3480	387.837601503647	16
8	3482	388.602571633211	17
8	3497	391.207123251606	16
8	3524	392.282980493985	17
8	3526	393.761181312238	18
8	3528	395.44604665485	19
8	3548	397.788590088783	18
8	3567	398.59650409082	19
8	3625	403.420078604347	18
8	3630	403.423336669705	17
8	3660	404.633690075489	16
8	3677	405.193400900048	15
8	3682	405.405029284851	14
8	3687	405.417343435542	13
8	3695	405.468026064519	12
8	3710	405.831300594094	11
8	3736	407.318401069526	12
8	3746	408.207144065902	13
8	3751	408.858404341125	14
8	3756	410.15924334616	13
8	3761	410.185689802351	12
8	3771	410.287514163708	11
8	3778	411.093009611216	12
8	3792	412.534789063372	13
8	3795	412.547049173254	12
8	3802	412.758956168532	11
8	3815	413.072893590178	10
8	3820	413.103925651648	9
8	3834	413.401416484046	8
8	3839	413.749459626082	7
8	3860	414.14885866454	6
8	3872	414.498523123843	7
8	3887	414.737571637529	6
8	3902	415.287250375662	5
8	3909	415.293894737899	6
8	3921	416.488874163469	7
8	3923	418.696117839846	8
8	3925	418.922572931618	9
8	3927	419.889121136472	10
8	3929	420.008499143281	11
8	3931	420.433395398902	12
8	3933	420.629226551387	13
8	3935	420.714605089371	14
8	3937	422.349249960401	15
8	3942	423.420363502028	14
8	3954	426.49444500363	15
8	3959	429.781034102868	14
8	3966	435.092209294022	15
8	3973	436.138229837786	16
8	3985	438.014715217255	17
8	3987	438.258130488243	18
8	4014	446.673684575271	17
8	4039	450.499443315943	18
8	4061	464.9224318602	19
8	4063	468.105622273879	20
8	4083	469.339019043731	19
8	4098	469.641216481629	18
8	4133	472.821378103248	17
8	4144	475.161772355248	18
8	4150	475.272975238841	17
8	4175	478.282918051041	16
8	4232	481.572693958995	17
8	4237	482.628750681145	16
8	4242	482.629283602653	15
8	4247	482.7683268116	14
8	4254	483.263969067984	15
8	4259	483.444914996751	14
8	4264	483.448350497466	13
8	4271	483.627535991669	14
8	4286	484.317471082115	13
8	4318	488.319627263498	14
8	4350	492.679469044118	15
8	4357	493.310471213171	16
8	4359	493.913120867264	17
8	4384	497.310150727293	16
8	4391	497.694721809927	17
8	4395	497.965535732461	18
8	4428	499.826659970426	17
8	4438	500.399884030219	16
8	4445	500.498544811179	15
8	4455	500.895616573353	16
8	4467	502.291580132657	15
8	4472	502.694704608383	14
8	4495	503.973433027846	13
8	4517	505.079800587879	14
8	4519	505.475974992222	15
8	4529	505.71528884209	14
8	4561	507.484670029121	15
8	4578	508.974204162752	16
8	4625	515.69110637286	17
8	4647	522.196264220684	18
8	4654	522.953813424492	19
8	4664	523.323306114839	18
8	4681	523.690947064242	17
8	4723	524.702628010818	16
8	4728	524.903962436401	15
8	4733	525.081766506863	14
8	4794	527.840055313144	13
8	4801	529.136636409231	14
8	4816	530.350930365635	13
8	4838	532.485776849446	12
8	4853	532.965923123007	11
8	4883	534.006610493513	10
8	4898	534.538012600225	11
8	4900	535.378611899555	12
8	4909	535.707841217159	13
8	4917	535.825080934606	12
8	4929	536.568152426313	13
8	4933	538.081657694733	14
8	4941	539.304521259995	13
8	4946	539.433734737774	12
8	4956	539.747015339889	11
8	4975	540.683604388417	12
8	4980	542.105938627192	13
8	4984	542.430187321421	14
8	4999	543.945324505861	15
8	5006	546.153208232672	16
8	5008	546.426792310322	17
8	5020	547.308095088611	16
8	5033	547.583939464558	15
8	5058	548.36299602772	14
8	5095	551.445275093651	15
8	5102	552.057085699131	16
8	5106	552.195810081338	17
8	5114	552.762940749828	16
8	5121	553.207683634074	17
8	5131	554.136815834234	16
8	5136	554.18727277137	15
8	5145	554.567354984683	16
8	5153	555.218131915938	15
8	5162	555.496846340295	16
8	5170	557.351956206314	15
8	5180	557.722113688528	14
8	5197	558.223782037006	15
8	5209	559.162822634841	16
8	5219	559.747144862604	15
8	5281	565.00271122296	16
8	5298	568.260913972664	15
8	5308	568.576581213333	16
8	5310	568.918623620704	17
8	5355	571.609445800265	16
8	5367	573.132288825429	17
8	5377	573.878048889696	16
8	5397	574.386939081487	15
8	5447	576.939686561399	14
8	5451	577.027353447895	15
8	5454	577.301233860696	14
8	5461	577.372562373134	15
8	5467	577.614257125617	16
8	5508	579.553260157154	15
8	5523	580.141412574841	14
8	5530	580.414048467627	15
8	5537	581.743528601858	16
8	5539	581.904134648075	17
8	5549	584.245417233807	16
8	5556	587.448028652132	17
8	5563	589.325504354557	18
8	5595	599.782885438319	19
8	5602	605.747026063013	20
8	5622	608.654017514978	19
8	5637	614.545834148668	18
8	5644	615.213349399924	19
8	5659	619.654747358242	18
8	5674	621.416941782025	17
8	5699	622.729102318472	16
8	5711	623.703199157841	17
8	5726	624.497396346471	16
8	5743	624.914733530555	17
8	5745	625.328572986376	18
8	5752	625.645502455801	19
8	5764	638.020699136057	20
8	5779	640.228657057562	19
8	5804	641.368012163617	18
8	5821	644.455780543461	17
8	5839	645.207809741403	16
8	5874	649.415258001659	15
8	5879	649.679858757227	14
8	5884	649.680352888695	13
8	5889	649.692256506452	12
8	5906	651.68417305168	13
8	5923	653.948033828634	14
8	5930	655.175351050998	15
8	5934	655.903346267073	16
8	5937	655.929163796544	15
8	5941	655.932837973218	16
8	5944	655.953690462047	15
8	5954	656.088253433422	14
8	5996	659.145407680812	13
8	6004	659.286760358466	12
8	6016	661.487232639701	13
8	6018	661.614880717908	14
8	6025	664.350613046616	15
8	6027	665.016740688801	16
8	6029	665.036256251067	17
8	6031	667.266514481398	18
8	6043	669.609975776705	19
8	6073	679.286831863513	18
8	6078	679.296576743054	17
8	6108	691.022469547671	16
8	6123	692.654135801562	15
8	6130	692.701723934617	16
8	6145	693.418615456032	15
8	6155	693.51970196886	14
8	6160	693.749612789052	13
8	6167	695.531096033573	14
8	6172	696.286481836067	13
8	6177	696.299663148336	12
8	6184	696.665750604989	13
8	6186	698.347995219969	14
8	6193	698.949858600215	15
8	6197	699.13262273253	16
8	6222	702.986422081333	17
8	6226	703.126973616268	18
8	6244	703.366559784336	17
8	6251	704.630020753792	18
8	6253	705.430313917826	19
8	6255	705.649933386454	20
8	6295	715.873814120094	19
8	6312	716.124008466888	18
8	6330	716.46168003624	17
8	6340	716.940837496566	16
8	6347	717.339366404519	17
8	6357	718.250275528059	16
8	6361	718.341288414456	17
8	6374	718.625249147034	16
8	6384	719.107003282358	15
8	6414	721.047524133918	14
8	6426	721.684461952864	15
8	6443	725.807229295658	16
8	6455	729.39531859611	17
8	6490	731.43614048195	16
8	6497	732.012467032183	17
8	6512	732.638607343936	16
8	6519	734.76928711243	17
8	6524	735.682470891397	16
8	6564	745.108748564636	15
8	6574	745.532315972158	14
8	6581	745.989125552569	15
8	6588	749.051846757514	16
8	6592	750.965465573503	17
8	6597	752.341587132353	18
8	6604	753.725051990047	19
8	6606	753.927868376065	20
8	6648	761.042474905805	19
8	6653	761.250293028105	18
8	6691	763.127120882892	17
8	6701	765.175900930402	16
8	6706	765.176883494028	15
8	6718	767.431947096146	16
8	6720	768.379682311924	17
8	6732	769.154186509854	18
8	6734	769.911555287192	19
8	6771	774.11512757298	18
8	6776	774.127586651098	17
8	6801	775.091414036079	18
8	6838	778.519668493952	19
8	6840	780.189758974504	20
8	6850	781.364882103887	19
8	6860	781.908681759093	18
8	6870	784.714399275121	17
8	6880	784.987220295451	16
8	6887	785.303018456002	15
8	6907	786.499320336264	16
8	6909	786.997748426373	17
8	6911	788.422898747368	18
8	6938	798.206359578686	19
8	6943	800.237646121399	18
8	6978	802.187428711602	17
8	6988	802.476555504816	16
8	6995	802.569465701323	17
8	7001	802.793517590603	18
8	7007	802.959702926056	17
8	7022	804.397723404091	16
8	7027	804.512085104552	15
8	7044	805.648208951716	16
8	7046	805.855738026968	17
8	7053	806.2559832449	16
8	7063	806.844101128326	17
8	7078	808.853530725612	16
8	7083	808.854152999586	15
8	7108	809.853887918393	14
8	7132	811.442959573542	15
8	7165	812.773426386364	14
8	7175	812.973156266619	13
8	7200	816.270490693191	12
8	7207	816.448997580935	13
8	7209	817.483644532868	14
8	7211	818.677045480336	15
8	7213	818.950170030581	16
8	7230	821.042275899941	17
8	7237	821.30179935597	16
8	7242	821.316506760322	15
8	7246	821.469774045742	16
8	7251	821.596933781787	17
8	7264	821.924088321807	16
8	7281	822.650749724292	17
8	7301	823.401524599899	16
8	7346	824.545260370166	15
8	7358	825.138740121032	16
8	7375	826.315637480798	17
8	7387	828.821818546152	18
8	7399	832.436063714999	19
8	7416	836.422244499761	20
8	7451	842.342198993825	19
8	7491	849.0616507684	18
8	7518	849.643130594935	17
8	7528	849.915630582089	16
8	7533	849.924136407699	15
8	7541	849.941562164622	14
8	7545	849.969180328681	15
8	7558	850.394468687743	14
8	7578	852.99418215962	13
8	7587	853.744118167303	14
8	7617	854.897066050307	15
8	7641	857.032256441633	16
8	7659	860.589579923365	15
8	7664	860.633489323332	14
8	7674	860.892121588384	13
8	7688	862.669402658247	14
8	7691	862.686862790024	13
8	7703	863.531534620234	14
8	7705	864.967724641936	15
8	7707	867.696349683677	16
8	7709	869.407622995055	17
8	7714	871.147742115884	16
8	7731	873.069232011612	17
8	7741	873.441400507821	16
8	7766	874.607521529694	15
8	7778	874.948275552446	16
8	7800	876.856245071124	17
8	7807	878.461313369209	18
8	7824	879.141168235174	19
8	7884	887.796342040406	18
8	7889	887.891078396469	17
8	7896	888.945991437504	18
8	7913	895.609285809124	19
8	7915	895.649919184853	20
8	7945	897.605608317758	19
8	7982	913.190124446793	20
8	7992	915.912835686498	19
8	8077	928.303691730039	18
8	8089	930.05711274928	19
8	8091	935.858160246366	20
8	8103	936.766842540084	19
8	8111	936.978846377654	18
8	8148	939.834695374442	19
8	8173	947.449800541447	18
8	8198	951.161918614713	17
8	8205	951.353819824876	18
8	8230	959.068230383493	17
8	8242	959.586194979851	18
8	8337	968.299044032141	17
8	8344	971.254026436703	18
8	8359	972.695385423314	17
8	8386	984.166788972989	18
8	8396	985.79698818222	17
8	8406	986.169095407035	16
8	8413	987.122280610933	17
8	8420	990.136038443626	18
8	8437	993.611133182389	19
8	8452	995.552363226818	18
8	8459	996.686690169609	19
8	8468	998.241796200796	20
8	8471	998.244364883062	19
8	8481	998.464411728238	18
8	8488	1000.273436100028	19
8	8495	1002.803282380273	20
8	8505	1004.024759199035	19
8	8520	1004.78006645921	18
8	8577	1013.843141563463	19
8	8592	1015.168708814675	18
8	8607	1015.849162681826	17
8	8627	1016.478932677819	16
8	8654	1017.413704852058	15
8	8667	1017.660396540108	14
8	8672	1017.68100202981	13
8	8684	1018.138377449822	14
8	8691	1019.139679988918	15
8	8693	1019.628607855464	16
8	8695	1020.31592057455	17
8	8700	1020.794074064827	16
8	8715	1021.431622193251	15
8	8725	1021.537740995164	14
8	8730	1021.582421906562	13
8	8737	1021.730528197636	12
8	8750	1021.79643702576	11
8	8767	1022.892416822336	12
8	8773	1023.40519734884	13
8	8791	1024.219478762905	14
8	8803	1029.0053601833	15
8	8808	1029.589840247523	14
8	8815	1029.669352254651	13
8	8825	1030.392653573839	14
8	8827	1030.790416619718	15
8	8839	1033.805842639332	16
8	8841	1034.114451263146	17
8	8843	1034.321138302757	18
8	8848	1036.790378515211	17
8	8857	1037.766221075992	18
8	8872	1043.424423179763	19
8	8882	1046.34719740127	18
8	8887	1046.501524494577	17
8	8912	1047.244928196601	16
8	8927	1050.102613002457	15
8	8931	1050.182060280577	16
8	8939	1051.246004482314	15
8	8954	1052.334663853102	14
8	8959	1052.731344637706	13
8	8969	1053.178552184116	12
8	8976	1053.476407042257	13
8	8981	1053.525081755128	12
8	9000	1053.974305060538	13
8	9015	1055.521887746611	14
8	9027	1056.74759382289	15
8	9029	1058.507582323222	16
8	9031	1060.727954680019	17
8	9033	1061.054244433054	18
8	9038	1061.383669968646	17
8	9043	1061.596612754599	16
8	9050	1063.353524630836	17
8	9052	1063.853352559221	18
8	9064	1066.037254761636	17
8	9092	1069.016207268856	16
8	9107	1071.248667771773	15
8	9119	1072.757630726233	16
8	9144	1074.488582014561	15
8	9151	1076.889504927448	16
8	9153	1077.516146952438	17
8	9163	1079.821085544391	16
8	9173	1080.639848966508	15
8	9178	1080.645452910205	14
8	9205	1085.437460080331	15
8	9242	1089.439882806927	16
8	9244	1089.909543706661	17
8	9246	1090.238610330379	18
8	9253	1091.551994848863	19
8	9280	1097.708670400983	20
8	9285	1097.851021280403	19
8	9300	1098.943758987004	18
8	9305	1099.013209201105	17
8	9327	1099.952387945658	18
8	9329	1102.011786372508	19
8	9349	1103.692977493114	18
8	9394	1105.641485967987	17
8	9419	1107.514191493188	16
8	9433	1108.24833967958	17
8	9441	1108.50201592564	16
8	9448	1109.897543897373	17
8	9460	1112.962423273233	18
8	9465	1114.01922157868	17
8	9475	1114.473985479689	16
8	9492	1116.0922820235	17
8	9497	1116.56792001604	16
8	9502	1116.627391866228	15
8	9514	1118.90335876424	16
8	9516	1119.567284938072	17
8	9518	1120.070132351615	18
8	9520	1122.119206217797	19
8	9522	1126.081635039303	20
8	9537	1137.061739777053	19
8	9564	1143.129422966409	20
8	9624	1155.701856917344	19
8	9661	1157.007189378028	18
8	9679	1157.51804507592	17
8	9686	1157.672910630322	16
8	9734	1164.656922022063	15
8	9759	1165.557182190694	14
8	9774	1165.785542584236	13
8	9779	1165.793462616389	12
8	9791	1166.281479119083	11
8	9799	1166.454427810647	10
8	9816	1167.695931071112	11
8	9821	1169.405603591233	10
8	9826	1169.420537969341	9
8	9838	1169.959717574105	10
8	9840	1170.165749336442	11
8	9852	1173.27150326063	12
8	9879	1176.732146857848	13
8	9881	1176.838313388121	14
8	9886	1177.046043926924	13
8	9893	1178.047324435459	14