version 2
run Tictoc15-0-20141228-16:02:33-3320
attr configname Tictoc15
attr datetime 20141228-16:02:33
attr experiment Tictoc15
attr inifile omnetpp.ini
attr iterationvars ""
attr iterationvars2 $repetition=0
attr measurement ""
attr network Tictoc15
attr processid 3320
attr repetition 0
attr replication #0
attr resultdir results
attr runnumber 0
attr seedset 0

vector 5  Tictoc15.tic[5]  HopCount  ETV
vector 0  Tictoc15.tic[0]  HopCount  ETV
vector 3  Tictoc15.tic[3]  HopCount  ETV
vector 4  Tictoc15.tic[4]  HopCount  ETV
vector 1  Tictoc15.tic[1]  HopCount  ETV
vector 2  Tictoc15.tic[2]  HopCount  ETV
0	29	2.8	11
0	139	13.8	31
0	153	15.2	8
0	159	15.8	2
0	189	18.8	9
0	215	21.4	12
0	251	25	2
0	317	31.6	8
0	329	32.8	6
0	347	34.6	4
0	383	38.2	17
0	393	39.2	9
0	609	60.8	8
0	681	68	60
0	695	69.4	9
0	725	72.4	7
0	763	76.2	5
0	949	94.8	5
0	1105	110.4	1
0	1303	130.2	22
0	1369	136.8	2
0	1547	154.6	7
0	1555	155.4	4
0	1569	156.8	2
0	1587	158.6	7
0	1619	161.8	6
0	1797	179.6	15
0	1839	183.8	7
0	1861	186	10
0	1921	192	20
0	1947	194.6	16
0	2061	206	37
0	2129	212.8	21
0	2167	216.6	27
0	2273	227.2	22
0	2285	228.4	5
0	2309	230.8	18
0	2379	237.8	2
0	2423	242.2	16
0	2437	243.6	11
0	2525	252.4	32
0	2551	255	17
0	2743	274.2	7
0	2777	277.6	26
0	2827	282.6	15
0	2903	290.2	16
0	2913	291.2	5
0	2989	298.8	5
0	3009	300.8	2
0	3077	307.6	9
0	3175	317.4	4
0	3215	321.4	1
0	3219	321.8	2
0	3235	323.4	12
0	3297	329.6	2
0	3337	333.6	33
0	3357	335.6	4
0	3489	348.8	11
0	3575	357.4	2
0	3601	360	11
0	3685	368.4	13
0	3863	386.2	66
0	3897	389.6	1
0	4117	411.6	8
0	4133	413.2	3
0	4219	421.8	2
0	4223	422.2	2
0	4307	430.6	38
0	4337	433.6	23
0	4375	437.4	3
0	4507	450.6	44
0	4619	461.8	11
0	4765	476.4	5
0	4847	484.6	2
0	4875	487.4	5
0	4931	493	15
0	5023	502.2	7
0	5049	504.8	9
0	5127	512.6	30
0	5149	514.8	4
0	5215	521.4	36
0	5225	522.4	7
0	5393	539.2	7
0	5411	541	9
0	5449	544.8	7
0	5563	556.2	3
0	5623	562.2	21
0	5751	575	7
0	5773	577.2	21
0	5787	578.6	4
0	5837	583.6	35
0	5989	598.8	2
0	6001	600	5
0	6051	605	3
0	6071	607	5
0	6075	607.4	3
0	6111	611	10
0	6115	611.4	2
0	6137	613.6	8
0	6175	617.4	34
0	6209	620.8	9
0	6273	627.2	1
0	6451	645	7
0	6493	649.2	17
0	6591	659	51
0	6727	672.6	11
0	6817	681.6	23
0	6875	687.4	7
0	6933	693.2	22
0	7079	707.8	13
0	7091	709	9
0	7233	723.2	23
0	7285	728.4	13
0	7359	735.8	21
0	7469	746.8	41
0	7513	751.2	13
0	7559	755.8	28
0	7585	758.4	5
0	7691	769	39
0	7717	771.6	16
0	7733	773.2	4
0	7801	780	37
0	7855	785.4	5
0	7887	788.6	5
0	7977	797.6	6
0	7993	799.2	6
0	8091	809	31
0	8111	811	12
0	8171	817	3
0	8245	824.4	49
0	8475	847.4	14
0	8523	852.2	18
0	8651	865	2
0	8701	870	15
0	8745	874.4	19
0	8769	876.8	1
0	8829	882.8	14
0	8847	884.6	16
0	8967	896.6	13
0	9019	901.8	17
0	9049	904.8	5
0	9107	910.6	19
0	9121	912	8
0	9149	914.8	8
0	9155	915.4	1
0	9199	919.8	11
0	9343	934.2	1
0	9405	940.4	44
0	9419	941.8	11
0	9567	956.6	37
0	9585	958.4	4
0	9599	959.8	4
0	9705	970.4	27
0	9715	971.4	7
0	9855	985.4	35
0	9885	988.4	7
0	9905	990.4	11
0	10001	1000	12
0	10011	1001	2
0	10045	1004.4	7
0	10107	1010.6	5
0	10121	1012	2
0	10251	1025	6
0	10511	1051	95
0	10537	1053.6	4
0	10551	1055	4
0	10587	1058.6	1
0	10631	1063	13
0	10663	1066.2	13
0	10757	1075.6	37
0	10907	1090.6	77
0	10959	1095.8	5
0	10983	1098.2	5
0	11001	1100	3
0	11043	1104.2	38
0	11065	1106.4	16
0	11173	1117.2	18
0	11211	1121	12
0	11319	1131.8	21
0	11399	1139.8	38
0	11469	1146.8	26
0	11537	1153.6	8
0	11573	1157.2	18
0	11679	1167.8	15
0	11697	1169.6	4
0	11739	1173.8	1
0	11939	1193.8	47
0	12053	1205.2	38
0	12067	1206.6	5
0	12099	1209.8	15
0	12133	1213.2	4
0	12177	1217.6	6
0	12213	1221.2	3
0	12275	1227.4	1
0	12397	1239.6	2
0	12433	1243.2	19
0	12475	1247.4	7
0	12541	1254	21
0	12577	1257.6	1
0	12657	1265.6	5
0	12713	1271.2	10
0	12753	1275.2	21
0	12767	1276.6	6
0	12905	1290.4	28
0	13041	1304	7
0	13109	1310.8	6
0	13171	1317	3
0	13201	1320	3
0	13229	1322.8	5
0	13277	1327.6	17
0	13427	1342.6	7
0	13431	1343	2
0	13455	1345.4	9
0	13477	1347.6	7
0	13483	1348.2	4
0	13523	1352.2	6
0	13527	1352.6	1
0	13559	1355.8	5
0	13603	1360.2	30
0	13649	1364.8	15
0	13671	1367	18
0	13729	1372.8	37
0	13833	1383.2	8
0	13841	1384	4
0	13957	1395.6	1
0	13971	1397	9
0	14053	1405.2	9
0	14145	1414.4	5
0	14191	1419	9
0	14311	1431	19
0	14351	1435	28
0	14445	1444.4	25
0	14471	1447	25
0	14531	1453	7
0	14559	1455.8	13
0	14603	1460.2	40
0	14649	1464.8	9
0	14707	1470.6	19
0	14717	1471.6	8
0	14747	1474.6	9
0	14887	1488.6	2
0	15069	1506.8	2
0	15171	1517	2
0	15277	1527.6	11
0	15355	1535.4	23
0	15369	1536.8	3
0	15371	1537	1
0	15377	1537.6	4
0	15435	1543.4	15
0	15437	1543.6	1
0	15471	1547	10
0	15539	1553.8	23
0	15569	1556.8	15
0	15617	1561.6	23
0	15631	1563	13
0	15661	1566	13
0	15897	1589.6	28
0	15917	1591.6	2
0	15927	1592.6	2
0	15963	1596.2	13
0	15977	1597.6	7
0	16053	1605.2	41
0	16091	1609	10
0	16107	1610.6	1
0	16151	1615	13
0	16227	1622.6	19
0	16389	1638.8	1
0	16485	1648.4	5
0	16513	1651.2	19
0	16565	1656.4	17
0	16627	1662.6	2
0	16659	1665.8	13
0	16753	1675.2	5
0	16783	1678.2	5
0	16805	1680.4	4
0	16837	1683.6	19
0	16951	1695	8
0	17011	1701	14
0	17021	1702	6
0	17059	1705.8	21
0	17091	1709	2
0	17169	1716.8	26
0	17273	1727.2	27
0	17331	1733	39
0	17435	1743.4	7
0	17483	1748.2	7
0	17513	1751.2	2
0	17561	1756	4
0	17621	1762	30
0	17637	1763.6	6
0	17687	1768.6	2
0	17705	1770.4	2
0	17725	1772.4	3
0	17881	1788	54
0	17895	1789.4	11
0	17993	1799.2	8
0	18031	1803	4
0	18037	1803.6	4
0	18043	1804.2	4
0	18101	1810	9
0	18117	1811.6	15
0	18185	1818.4	18
0	18207	1820.6	4
0	18225	1822.4	7
0	18251	1825	2
0	18289	1828.8	5
0	18291	1829	1
0	18413	1841.2	11
0	18539	1853.8	8
0	18559	1855.8	7
0	18561	1856	1
0	18605	1860.4	5
0	18867	1886.6	43
0	19041	1904	2
0	19153	1915.2	13
0	19177	1917.6	14
0	19333	1933.2	15
0	19359	1935.8	10
0	19451	1945	24
0	19483	1948.2	5
0	19519	1951.8	10
0	19563	1956.2	17
0	19681	1968	21
0	19699	1969.8	14
0	19769	1976.8	6
0	19791	1979	7
0	19817	1981.6	9
0	19885	1988.4	15
0	19905	1990.4	2
0	19991	1999	3
0	20009	2000.8	2
0	20123	2012.2	19
0	20193	2019.2	3
0	20343	2034.2	6
0	20481	2048	5
0	20511	2051	5
1	140	13.9	1
1	160	15.9	1
1	190	18.9	1
1	252	25.1	1
1	282	28.1	4
1	304	30.3	13
1	330	32.9	1
1	360	35.9	9
1	384	38.3	1
1	394	39.3	1
1	422	42.1	4
1	430	42.9	2
1	448	44.7	2
1	564	56.3	6
1	718	71.7	1
1	806	80.5	18
1	886	88.5	2
1	944	94.3	5
1	950	94.9	1
1	1022	102.1	1
1	1104	110.3	14
1	1324	132.3	1
1	1332	133.1	2
1	1482	148.1	4
1	1540	153.9	1
1	1620	161.9	1
1	1704	170.3	34
1	1798	179.7	1
1	1800	179.9	1
1	1862	186.1	1
1	1894	189.3	10
1	1978	197.7	22
1	1982	198.1	2
1	2064	206.3	1
1	2168	216.7	1
1	2230	222.9	8
1	2244	224.3	2
1	2310	230.9	1
1	2424	242.3	1
1	2488	248.7	10
1	2556	255.5	1
1	2606	260.5	4
1	2636	263.5	1
1	2714	271.3	3
1	2736	273.5	1
1	2744	274.3	1
1	2812	281.1	2
1	2904	290.3	1
1	3152	315.1	3
1	3176	317.5	1
1	3214	321.3	10
1	3240	323.9	1
1	3274	327.3	27
1	3298	329.7	1
1	3338	333.7	1
1	3404	340.3	1
1	3458	345.7	1
1	3490	348.9	1
1	3564	356.3	13
1	3566	356.5	1
1	3642	364.1	1
1	3760	375.9	1
1	3864	386.3	1
1	3896	389.5	1
1	4014	401.3	2
1	4088	408.7	15
1	4106	410.5	3
1	4118	411.7	1
1	4134	413.3	1
1	4138	413.7	2
1	4172	417.1	1
1	4174	417.3	1
1	4214	421.3	2
1	4244	424.3	1
1	4390	438.9	3
1	4400	439.9	1
1	4550	454.9	12
1	4582	458.1	2
1	4724	472.3	1
1	4806	480.5	11
1	4848	484.7	1
1	4860	485.9	4
1	4870	486.9	1
1	4964	496.3	8
1	5040	503.9	6
1	5238	523.7	9
1	5248	524.7	2
1	5360	535.9	28
1	5412	541.1	1
1	5424	542.3	2
1	5442	544.1	6
1	5486	548.5	5
1	5534	553.3	39
1	5564	556.3	1
1	5580	557.9	2
1	5744	574.3	6
1	5752	575.1	1
1	5860	585.9	2
1	5924	592.3	13
1	5940	593.9	3
1	5964	596.3	6
1	5990	598.9	1
1	5994	599.3	1
1	6026	602.5	14
1	6038	603.7	6
1	6072	607.1	1
1	6236	623.5	6
1	6272	627.1	1
1	6342	634.1	2
1	6386	638.5	5
1	6476	647.5	1
1	6540	653.9	12
1	6758	675.7	1
1	6778	677.7	2
1	6782	678.1	2
1	6904	690.3	2
1	7034	703.3	4
1	7234	723.3	1
1	7272	727.1	1
1	7294	729.3	5
1	7360	735.9	1
1	7376	737.5	2
1	7428	742.7	12
1	7518	751.7	1
1	7600	759.9	2
1	7638	763.7	16
1	7830	782.9	18
1	7962	796.1	4
1	8048	804.7	8
1	8112	811.1	1
1	8164	816.3	13
1	8168	816.7	1
1	8312	831.1	8
1	8334	833.3	1
1	8482	848.1	1
1	8580	857.9	1
1	8606	860.5	1
1	8666	866.5	4
1	8676	867.5	1
1	8726	872.5	9
1	8746	874.5	1
1	8768	876.7	8
1	8792	879.1	8
1	8878	887.7	2
1	9074	907.3	6
1	9088	908.7	8
1	9108	910.7	1
1	9154	915.3	2
1	9156	915.5	1
1	9166	916.5	2
1	9176	917.5	6
1	9342	934.1	1
1	9360	935.9	8
1	9406	940.5	1
1	9408	940.7	1
1	9420	941.9	1
1	9590	958.9	2
1	9678	967.7	4
1	9742	974.1	1
1	9782	978.1	4
1	9858	985.7	1
1	10056	1005.5	1
1	10186	1018.5	6
1	10252	1025.1	1
1	10286	1028.5	22
1	10308	1030.7	1
1	10336	1033.5	8
1	10532	1053.1	6
1	10540	1053.9	1
1	10586	1058.5	4
1	10618	1061.7	2
1	10642	1064.1	1
1	10664	1066.3	1
1	10720	1071.9	1
1	10778	1077.7	1
1	10800	1079.9	15
1	10808	1080.7	1
1	10814	1081.3	2
1	10922	1092.1	10
1	10968	1096.7	2
1	10978	1097.7	1
1	11100	1109.9	8
1	11196	1119.5	1
1	11298	1129.7	3
1	11326	1132.5	5
1	11412	1141.1	9
1	11524	1152.3	8
1	11612	1161.1	6
1	11618	1161.7	2
1	11632	1163.1	8
1	11738	1173.7	5
1	11794	1179.3	1
1	11848	1184.7	1
1	12068	1206.7	1
1	12134	1213.3	1
1	12142	1214.1	1
1	12168	1216.7	4
1	12250	1224.9	1
1	12256	1225.5	1
1	12274	1227.3	1
1	12290	1228.9	6
1	12310	1230.9	15
1	12340	1233.9	10
1	12356	1235.5	4
1	12372	1237.1	7
1	12388	1238.7	10
1	12438	1243.7	1
1	12516	1251.5	6
1	12576	1257.5	1
1	12612	1261.1	1
1	12652	1265.1	16
1	12664	1266.3	4
1	12714	1271.3	1
1	12866	1286.5	1
1	12916	1291.5	5
1	13004	1300.3	1
1	13060	1305.9	2
1	13136	1313.5	7
1	13198	1319.7	8
1	13466	1346.5	2
1	13490	1348.9	1
1	13526	1352.5	1
1	13608	1360.7	1
1	13730	1372.9	1
1	13824	1382.3	4
1	13842	1384.1	1
1	13956	1395.5	6
1	13988	1398.7	2
1	14032	1403.1	1
1	14146	1414.5	1
1	14160	1415.9	3
1	14246	1424.5	1
1	14248	1424.7	1
1	14266	1426.5	1
1	14352	1435.1	1
1	14360	1435.9	5
1	14366	1436.5	5
1	14368	1436.7	1
1	14390	1438.9	9
1	14406	1440.5	1
1	14446	1444.5	1
1	14516	1451.5	2
1	14718	1471.7	1
1	14748	1474.7	1
1	14818	1481.7	1
1	14842	1484.1	6
1	14896	1489.5	7
1	14914	1491.3	1
1	14940	1493.9	1
1	15016	1501.5	19
1	15092	1509.1	4
1	15202	1520.1	8
1	15356	1535.5	1
1	15370	1536.9	1
1	15372	1537.1	1
1	15378	1537.7	1
1	15390	1538.9	8
1	15398	1539.7	5
1	15418	1541.7	7
1	15436	1543.5	1
1	15540	1553.9	1
1	15618	1561.7	1
1	15638	1563.7	3
1	15648	1564.7	4
1	15686	1568.5	4
1	15704	1570.3	2
1	15716	1571.5	1
1	15768	1576.7	8
1	15814	1581.3	6
1	15854	1585.3	2
1	15918	1591.7	1
1	15970	1596.9	2
1	16000	1599.9	15
1	16106	1610.5	4
1	16138	1613.7	6
1	16192	1619.1	1
1	16208	1620.7	4
1	16322	1632.1	1
1	16328	1632.7	4
1	16342	1634.1	2
1	16388	1638.7	6
1	16434	1643.3	1
1	16460	1645.9	2
1	16494	1649.3	2
1	16546	1654.5	8
1	16568	1656.7	1
1	16682	1668.1	6
1	16696	1669.5	2
1	16800	1679.9	10
1	16838	1683.7	1
1	16862	1686.1	6
1	16928	1692.7	1
1	17092	1709.1	1
1	17106	1710.5	1
1	17140	1713.9	9
1	17178	1717.7	1
1	17200	1719.9	5
1	17280	1727.9	2
1	17410	1740.9	1
1	17428	1742.7	1
1	17460	1745.9	6
1	17520	1751.9	4
1	17590	1758.9	1
1	17670	1766.9	1
1	17722	1772.1	4
1	17818	1781.7	12
1	17932	1793.1	2
1	17976	1797.5	2
1	18000	1799.9	4
1	18032	1803.1	1
1	18064	1806.3	1
1	18102	1810.1	1
1	18246	1824.5	2
1	18290	1828.9	1
1	18314	1831.3	11
1	18402	1840.1	1
1	18440	1843.9	6
1	18478	1847.7	2
1	18494	1849.3	8
1	18506	1850.5	8
1	18560	1855.9	1
1	18592	1859.1	8
1	18600	1859.9	1
1	18678	1867.7	1
1	18734	1873.3	14
1	18970	1896.9	1
1	19074	1907.3	4
1	19178	1917.7	1
1	19256	1925.5	3
1	19360	1935.9	1
1	19374	1937.3	1
1	19404	1940.3	4
1	19406	1940.5	1
1	19454	1945.3	1
1	19502	1950.1	1
1	19578	1957.7	2
1	19700	1969.9	1
1	19716	1971.5	2
1	19724	1972.3	1
1	19756	1975.5	1
1	19776	1977.5	1
1	19798	1979.7	1
1	19844	1984.3	6
1	19988	1998.7	1
1	19992	1999.1	1
1	20010	2000.9	1
1	20076	2007.5	8
1	20132	2013.1	2
1	20266	2026.5	1
1	20298	2029.7	1
1	20394	2039.3	1
1	20412	2041.1	1
1	20504	2050.3	3
1	20598	2059.7	4
2	145	14.4	4
2	203	20.2	13
2	249	24.8	13
2	343	34.2	6
2	549	54.8	11
2	565	56.4	1
2	683	68.2	2
2	781	78	8
2	905	90.4	17
2	937	93.6	5
2	979	97.8	15
2	1021	102	21
2	1071	107	49
2	1305	130.4	2
2	1323	132.2	7
2	1367	136.6	35
2	1391	139	18
2	1429	142.8	13
2	1509	150.8	14
2	1539	153.8	13
2	1567	156.6	12
2	1613	161.2	26
2	1635	163.4	6
2	1777	177.6	43
2	1799	179.8	1
2	1931	193	7
2	1983	198.2	1
2	2021	202	23
2	2063	206.2	2
2	2339	233.8	29
2	2367	236.6	14
2	2377	237.6	4
2	2399	239.8	11
2	2585	258.4	19
2	2635	263.4	21
2	2707	270.6	23
2	2735	273.4	17
2	2751	275	7
2	2781	278	4
2	2829	282.8	2
2	2835	283.4	4
2	2855	285.4	4
2	2929	292.8	16
2	3007	300.6	3
2	3115	311.4	38
2	3147	314.6	3
2	3239	323.8	4
2	3295	329.4	10
2	3353	335.2	15
2	3457	345.6	17
2	3533	353.2	5
2	3565	356.4	1
2	3573	357.2	6
2	3641	364	34
2	3759	375.8	3
2	3797	379.6	25
2	3867	386.6	3
2	3895	389.4	11
2	3909	390.8	12
2	3923	392.2	9
2	3937	393.6	9
2	3993	399.2	35
2	4171	417	20
2	4215	421.4	1
2	4239	423.8	16
2	4269	426.8	11
2	4399	439.8	5
2	4463	446.2	3
2	4517	451.6	7
2	4551	455	1
2	4597	459.6	11
2	4723	472.2	19
2	4731	473	6
2	4845	484.4	39
2	4869	486.8	9
2	4907	490.6	19
2	5079	507.8	6
2	5179	517.8	17
2	5315	531.4	37
2	5361	536	1
2	5395	539.4	2
2	5487	548.6	1
2	5581	558	1
2	5641	564	16
2	5687	568.6	9
2	5729	572.8	15
2	5941	594	1
2	5969	596.8	5
2	5987	598.6	7
2	5993	599.2	3
2	6113	611.2	2
2	6141	614	4
2	6271	627	3
2	6285	628.4	12
2	6319	631.8	27
2	6371	637	11
2	6429	642.8	30
2	6475	647.4	19
2	6613	661.2	6
2	6653	665.2	19
2	6679	667.8	10
2	6757	675.6	13
2	6835	683.4	18
2	6895	689.4	20
2	6949	694.8	10
2	7097	709.6	6
2	7207	720.6	27
2	7271	727	16
2	7297	729.6	3
2	7407	740.6	31
2	7489	748.8	5
2	7517	751.6	4
2	7531	753	3
2	7561	756	2
2	7729	772.8	9
2	7757	775.6	5
2	7899	789.8	12
2	8139	813.8	27
2	8167	816.6	3
2	8265	826.4	16
2	8333	833.2	15
2	8413	841.2	11
2	8481	848	6
2	8487	848.6	5
2	8527	852.6	4
2	8549	854.8	7
2	8579	857.8	5
2	8605	860.4	25
2	8611	861	5
2	8631	863	3
2	8649	864.8	10
2	8675	867.4	8
2	8915	891.4	13
2	9075	907.4	1
2	9113	911.2	5
2	9141	914	20
2	9227	922.6	21
2	9257	925.6	19
2	9293	929.2	28
2	9329	932.8	17
2	9361	936	1
2	9407	940.6	1
2	9433	943.2	13
2	9473	947.2	15
2	9507	950.6	21
2	9581	958	14
2	9615	961.4	11
2	9741	974	9
2	9775	977.4	21
2	9791	979	9
2	9939	993.8	4
2	9989	998.8	48
2	10009	1000.8	8
2	10027	1002.6	6
2	10137	1013.6	11
2	10153	1015.2	13
2	10199	1019.8	5
2	10245	1024.4	9
2	10307	1030.6	21
2	10349	1034.8	10
2	10361	1036	8
2	10367	1036.6	2
2	10539	1053.8	2
2	10579	1057.8	17
2	10673	1067.2	5
2	10709	1070.8	15
2	10719	1071.8	5
2	10777	1077.6	9
2	10807	1080.6	3
2	10941	1094	16
2	10977	1097.6	9
2	10985	1098.4	2
2	11081	1108	16
2	11107	1110.6	7
2	11125	1112.4	5
2	11195	1119.4	15
2	11225	1122.4	9
2	11237	1123.6	5
2	11279	1127.8	36
2	11327	1132.6	1
2	11361	1136	16
2	11497	1149.6	3
2	11599	1159.8	19
2	11651	1165	19
2	11717	1171.6	8
2	11767	1176.6	19
2	11811	1181	17
2	11847	1184.6	34
2	12015	1201.4	39
2	12129	1212.8	5
2	12249	1224.8	33
2	12255	1225.4	5
2	12273	1227.2	7
2	12361	1236	5
2	12395	1239.4	2
2	12399	1239.8	2
2	12437	1243.6	4
2	12479	1247.8	4
2	12493	1249.2	2
2	12575	1257.4	12
2	12611	1261	29
2	12701	1270	25
2	12787	1278.6	20
2	12817	1281.6	5
2	12867	1286.6	1
2	12877	1287.6	3
2	12937	1293.6	2
2	12995	1299.4	29
2	13045	1304.4	4
2	13103	1310.2	19
2	13183	1318.2	8
2	13217	1321.6	9
2	13309	1330.8	11
2	13333	1333.2	11
2	13429	1342.8	2
2	13433	1343.2	2
2	13479	1347.8	2
2	13489	1348.8	6
2	13517	1351.6	15
2	13573	1357.2	7
2	13607	1360.6	4
2	13807	1380.6	25
2	13825	1382.4	1
2	13877	1387.6	21
2	13893	1389.2	7
2	13917	1391.6	15
2	14031	1403	19
2	14093	1409.2	22
2	14245	1424.4	17
2	14247	1424.6	1
2	14265	1426.4	7
2	14377	1437.6	5
2	14405	1440.4	3
2	14475	1447.4	4
2	14501	1450	17
2	14653	1465.2	4
2	14673	1467.2	3
2	14709	1470.8	2
2	14727	1472.6	5
2	14817	1481.6	28
2	14885	1488.4	13
2	14913	1491.2	15
2	15067	1506.6	34
2	15129	1512.8	19
2	15153	1515.2	15
2	15169	1516.8	12
2	15215	1521.4	6
2	15249	1524.8	25
2	15323	1532.2	23
2	15391	1539	1
2	15461	1546	24
2	15481	1548	10
2	15687	1568.6	1
2	15715	1571.4	7
2	15731	1573	14
2	15801	1580	29
2	15819	1581.8	2
2	15869	1586.8	15
2	15915	1591.4	9
2	15925	1592.4	4
2	16093	1609.2	2
2	16163	1616.2	9
2	16191	1619	15
2	16297	1629.6	25
2	16321	1632	14
2	16365	1636.4	13
2	16379	1637.8	2
2	16433	1643.2	37
2	16487	1648.6	2
2	16567	1656.6	2
2	16585	1658.4	16
2	16621	1662	30
2	16769	1676.8	14
2	16927	1692.6	33
2	16973	1697.2	9
2	16997	1699.6	13
2	17023	1702.2	2
2	17089	1708.8	30
2	17105	1710.4	6
2	17129	1712.8	23
2	17141	1714	1
2	17177	1717.6	2
2	17191	1719	13
2	17201	1720	1
2	17215	1721.4	3
2	17351	1735	3
2	17393	1739.2	13
2	17409	1740.8	11
2	17417	1741.6	5
2	17427	1742.6	7
2	17511	1751	3
2	17543	1754.2	23
2	17551	1755	2
2	17569	1756.8	5
2	17669	1766.8	32
2	17697	1769.6	10
2	17703	1770.2	3
2	17769	1776.8	33
2	17779	1777.8	7
2	18027	1802.6	5
2	18063	1806.2	4
2	18147	1814.6	13
2	18167	1816.6	3
2	18203	1820.2	18
2	18249	1824.8	3
2	18293	1829.2	2
2	18341	1834	19
2	18357	1835.6	6
2	18401	1840	29
2	18479	1847.8	1
2	18531	1853	17
2	18593	1859.2	1
2	18599	1859.8	3
2	18677	1867.6	23
2	18707	1870.6	15
2	18789	1878.8	52
2	18817	1881.6	6
2	18909	1890.8	13
2	18969	1896.8	17
2	19039	1903.8	15
2	19061	1906	9
2	19117	1911.6	43
2	19209	1920.8	14
2	19217	1921.6	3
2	19257	1925.6	1
2	19285	1928.4	5
2	19373	1937.2	8
2	19405	1940.4	1
2	19425	1942.4	19
2	19501	1950	18
2	19701	1970	1
2	19755	1975.4	11
2	19903	1990.2	18
2	19987	1998.6	31
2	20007	2000.6	7
2	20061	2006	19
2	20091	2009	15
2	20159	2015.8	14
2	20195	2019.4	2
2	20265	2026.4	9
2	20297	2029.6	31
2	20313	2031.2	11
2	20337	2033.6	3
2	20355	2035.4	6
2	20381	2038	15
2	20411	2041	6
2	20433	2043.2	13
2	20441	2044	4
2	20603	2060.2	2
3	74	7.3	45
3	180	17.9	1
3	278	27.7	26
3	290	28.9	8
3	418	41.7	24
3	440	43.9	4
3	538	53.7	34
3	600	59.9	35
3	758	75.7	33
3	772	77.1	9
3	786	78.5	5
3	932	93.1	8
3	962	96.1	12
3	964	96.3	1
3	996	99.5	13
3	1090	108.9	19
3	1234	123.3	129
3	1280	127.9	45
3	1316	131.5	7
3	1330	132.9	6
3	1416	141.5	25
3	1650	164.9	15
3	1782	178.1	5
3	1832	183.1	32
3	1980	197.9	1
3	1998	199.7	15
3	2108	210.7	2
3	2140	213.9	2
3	2280	227.9	7
3	2352	235.1	6
3	2478	247.7	41
3	2554	255.3	3
3	2602	260.1	3
3	2612	261.1	6
3	2684	268.3	22
3	2718	271.7	4
3	2810	280.9	23
3	2850	284.9	15
3	2908	290.7	4
3	2984	298.3	46
3	3004	300.3	15
3	3014	301.3	5
3	3142	314.1	27
3	3200	319.9	8
3	3246	324.5	6
3	3434	343.3	12
3	3478	347.7	14
3	3664	366.3	22
3	3672	367.1	7
3	3724	372.3	35
3	3772	377.1	12
3	3884	388.3	17
3	3956	395.5	3
3	4012	401.1	19
3	4102	410.1	14
3	4128	412.7	10
3	4194	419.3	15
3	4314	431.3	7
3	4386	438.5	11
3	4394	439.3	4
3	4460	445.9	60
3	4510	450.9	1
3	4528	452.7	11
3	4538	453.7	5
3	4580	457.9	29
3	4608	460.7	11
3	4670	466.9	51
3	4698	469.7	4
3	4760	475.9	7
3	4916	491.5	9
3	4956	495.5	25
3	5016	501.5	39
3	5030	502.9	7
3	5072	507.1	23
3	5088	508.7	3
3	5138	513.7	11
3	5144	514.3	2
3	5162	516.1	4
3	5218	521.7	3
3	5246	524.5	8
3	5332	533.1	17
3	5402	540.1	7
3	5422	542.1	10
3	5436	543.5	12
3	5470	546.9	21
3	5590	558.9	9
3	5602	560.1	8
3	5664	566.3	23
3	5678	567.7	3
3	5858	585.7	21
3	5910	590.9	50
3	5980	597.9	8
3	6012	601.1	11
3	6032	603.1	1
3	6066	606.5	15
3	6200	619.9	25
3	6340	633.9	21
3	6348	634.7	6
3	6354	635.3	5
3	6444	644.3	15
3	6456	645.5	3
3	6606	660.5	11
3	6630	662.9	2
3	6668	666.7	15
3	6716	671.5	9
3	6744	674.3	17
3	6780	677.9	1
3	6794	679.3	9
3	7004	700.3	33
3	7066	706.5	32
3	7148	714.7	6
3	7180	717.9	14
3	7254	725.3	20
3	7324	732.3	2
3	7338	733.7	10
3	7416	741.5	5
3	7500	749.9	1
3	7528	752.7	10
3	7580	757.9	12
3	7652	765.1	14
3	7838	783.7	8
3	7850	784.9	2
3	7882	788.1	27
3	7970	796.9	8
3	7996	799.5	3
3	8196	819.5	25
3	8304	830.3	39
3	8378	837.7	44
3	8460	845.9	47
3	8500	849.9	13
3	8542	854.1	15
3	8626	862.5	15
3	8662	866.1	11
3	8686	868.5	6
3	8760	875.9	14
3	8876	887.5	29
3	8954	895.3	39
3	9002	900.1	8
3	9178	917.7	2
3	9188	918.7	6
3	9236	923.5	3
3	9238	923.7	1
3	9486	948.5	7
3	9530	952.9	2
3	9588	958.7	3
3	9604	960.3	5
3	9674	967.3	47
3	9708	970.7	3
3	9754	975.3	12
3	9820	981.9	2
3	9878	987.7	12
3	9894	989.3	9
3	10090	1008.9	12
3	10102	1010.1	5
3	10118	1011.7	11
3	10126	1012.5	5
3	10178	1017.7	20
3	10236	1023.5	37
3	10328	1032.7	20
3	10404	1040.3	37
3	10416	1041.5	11
3	10582	1058.1	3
3	10650	1064.9	8
3	10714	1071.3	5
3	10768	1076.7	11
3	10954	1095.3	13
3	10966	1096.5	3
3	11092	1109.1	11
3	11114	1111.3	1
3	11152	1115.1	27
3	11216	1121.5	5
3	11232	1123.1	7
3	11294	1129.3	15
3	11340	1133.9	13
3	11440	1143.9	10
3	11442	1144.1	1
3	11490	1148.9	21
3	11516	1151.5	19
3	11528	1152.7	4
3	11624	1162.3	3
3	11664	1166.3	13
3	11692	1169.1	13
3	11708	1170.7	5
3	11732	1173.1	15
3	11748	1174.7	9
3	11786	1178.5	17
3	11892	1189.1	44
3	11976	1197.5	37
3	12062	1206.1	9
3	12122	1212.1	23
3	12164	1216.3	12
3	12266	1226.5	10
3	12312	1231.1	2
3	12406	1240.5	7
3	12414	1241.3	2
3	12458	1245.7	20
3	12490	1248.9	11
3	12562	1256.1	21
3	12582	1258.1	1
3	12636	1263.5	24
3	12732	1273.1	10
3	12812	1281.1	25
3	12856	1285.5	39
3	13034	1303.3	30
3	13118	1311.7	9
3	13166	1316.5	21
3	13190	1318.9	7
3	13224	1322.3	3
3	13298	1329.7	21
3	13420	1341.9	58
3	13446	1344.5	13
3	13550	1354.9	23
3	13634	1363.3	26
3	13692	1369.1	21
3	13782	1378.1	52
3	13856	1385.5	14
3	13926	1392.5	9
3	13962	1396.1	5
3	14044	1404.3	11
3	14108	1410.7	7
3	14140	1413.9	4
3	14214	1421.3	23
3	14258	1425.7	9
3	14292	1429.1	26
3	14372	1437.1	4
3	14402	1440.1	12
3	14420	1441.9	1
3	14514	1451.3	13
3	14524	1452.3	8
3	14636	1463.5	2
3	14640	1463.9	3
3	14662	1466.1	9
3	14670	1466.9	2
3	14834	1483.3	16
3	14916	1491.5	2
3	14938	1493.7	21
3	14996	1499.5	56
3	15032	1503.1	16
3	15110	1510.9	18
3	15208	1520.7	1
3	15300	1529.9	2
3	15358	1535.7	2
3	15420	1541.9	2
3	15554	1555.3	14
3	15644	1564.3	6
3	15680	1567.9	19
3	15702	1570.1	15
3	15708	1570.7	4
3	15772	1577.1	4
3	15920	1591.9	2
3	15950	1594.9	23
3	15968	1596.7	5
3	15984	1598.3	1
3	16114	1611.3	7
3	16204	1620.3	12
3	16268	1626.7	2
3	16324	1632.3	2
3	16340	1633.9	11
3	16350	1634.9	1
3	16376	1637.5	7
3	16396	1639.5	7
3	16458	1645.7	1
3	16480	1647.9	1
3	16492	1649.1	5
3	16538	1653.7	20
3	16548	1654.7	2
3	16646	1664.5	19
3	16694	1669.3	12
3	16778	1677.7	1
3	16790	1678.9	7
3	16818	1681.7	13
3	16894	1689.3	25
3	16964	1696.3	13
3	17038	1703.7	15
3	17194	1719.3	3
3	17246	1724.5	4
3	17278	1727.7	5
3	17282	1728.1	2
3	17290	1728.9	7
3	17292	1729.1	1
3	17348	1734.7	17
3	17376	1737.5	25
3	17412	1741.1	2
3	17420	1741.9	3
3	17454	1745.3	19
3	17564	1756.3	3
3	17578	1757.7	9
3	17586	1758.5	6
3	17684	1768.3	3
3	17700	1769.9	3
3	17734	1773.3	9
3	17826	1782.5	8
3	17930	1792.9	2
3	17960	1795.9	28
3	17996	1799.5	3
3	18022	1802.1	22
3	18058	1805.7	15
3	18068	1806.7	4
3	18078	1807.7	9
3	18088	1808.7	9
3	18236	1823.5	11
3	18238	1823.7	1
3	18244	1824.3	4
3	18322	1832.1	8
3	18372	1837.1	15
3	18434	1843.3	21
3	18498	1849.7	3
3	18514	1851.3	8
3	18584	1858.3	23
3	18654	1865.3	49
3	18736	1873.5	2
3	18824	1882.3	7
3	18922	1892.1	3
3	19024	1902.3	1
3	19050	1904.9	9
3	19070	1906.9	9
3	19140	1913.9	23
3	19246	1924.5	29
3	19278	1927.7	21
3	19302	1930.1	13
3	19400	1939.9	26
3	19478	1947.7	20
3	19522	1952.1	1
3	19576	1957.5	5
3	19714	1971.3	2
3	19744	1974.3	20
3	19784	1978.3	8
3	19808	1980.7	10
3	19956	1995.5	51
3	20042	2004.1	18
3	20104	2010.3	13
3	20140	2013.9	4
3	20256	2025.5	1
3	20334	2033.3	19
3	20366	2036.5	2
3	20392	2039.1	11
3	20404	2040.3	1
3	20420	2041.9	8
3	20476	2047.5	35
3	20594	2059.3	68
4	77	7.6	1
4	79	7.8	1
4	141	14	1
4	157	15.6	4
4	179	17.8	19
4	291	29	1
4	309	30.8	5
4	323	32.2	6
4	337	33.6	1
4	351	35	1
4	601	60	1
4	621	62	12
4	717	71.6	1
4	773	77.2	1
4	939	93.8	2
4	963	96.2	1
4	983	98.2	4
4	997	99.6	1
4	1235	123.4	1
4	1281	128	1
4	1309	130.8	4
4	1373	137.2	4
4	1495	149.4	13
4	1551	155	4
4	1571	157	2
4	1629	162.8	1
4	1707	170.6	3
4	1851	185	1
4	1901	190	7
4	1923	192.2	2
4	1979	197.8	1
4	2023	202.2	2
4	2251	225	7
4	2291	229	1
4	2353	235.2	1
4	2373	237.2	6
4	2407	240.6	8
4	2425	242.4	1
4	2493	249.2	1
4	2555	255.4	1
4	2599	259.8	1
4	2711	271	4
4	2787	278.6	6
4	2831	283	2
4	2851	285	1
4	2887	288.6	1
4	3149	314.8	2
4	3171	317	1
4	3177	317.6	1
4	3217	321.6	2
4	3223	322.2	4
4	3247	324.6	1
4	3285	328.4	11
4	3361	336	4
4	3391	339	1
4	3395	339.4	1
4	3403	340.2	1
4	3551	355	1
4	3567	356.6	1
4	3605	360.4	1
4	3607	360.6	1
4	3665	366.4	1
4	3689	368.8	4
4	3913	391.2	4
4	3953	395.2	16
4	4029	402.8	15
4	4073	407.2	1
4	4103	410.2	1
4	4109	410.8	1
4	4129	412.8	1
4	4151	415	13
4	4173	417.2	1
4	4179	417.8	5
4	4217	421.6	2
4	4221	422	2
4	4243	424.2	4
4	4387	438.6	1
4	4509	450.8	2
4	4533	453.2	1
4	4725	472.4	1
4	4753	475.2	22
4	4795	479.4	1
4	4877	487.6	2
4	4977	497.6	13
4	5031	503	1
4	5073	507.2	1
4	5085	508.4	6
4	5097	509.6	1
4	5145	514.4	1
4	5153	515.2	4
4	5229	522.8	4
4	5481	548	1
4	5495	549.4	8
4	5625	562.4	2
4	5675	567.4	1
4	5783	578.2	1
4	5801	580	14
4	5911	591	1
4	5937	593.6	13
4	5957	595.6	16
4	5995	599.4	1
4	6031	603	5
4	6101	610	1
4	6129	612.8	1
4	6349	634.8	1
4	6381	638	10
4	6399	639.8	13
4	6453	645.2	2
4	6595	659.4	4
4	6607	660.6	1
4	6669	666.8	1
4	6707	670.6	1
4	6779	677.8	1
4	6785	678.4	1
4	6911	691	7
4	6939	693.8	1
4	6971	697	1
4	7005	700.4	1
4	7255	725.4	1
4	7289	728.8	4
4	7299	729.8	2
4	7411	741	4
4	7499	749.8	1
4	7701	770	1
4	7719	771.8	2
4	7971	797	1
4	7979	797.8	2
4	7987	798.6	1
4	8049	804.8	1
4	8099	809.8	8
4	8151	815	12
4	8249	824.8	4
4	8461	846	1
4	8505	850.4	1
4	8639	863.8	8
4	8667	866.6	1
4	8679	867.8	3
4	8717	871.6	1
4	8777	877.6	8
4	8815	881.4	23
4	8831	883	2
4	8883	888.2	5
4	9233	923.2	6
4	9237	923.6	1
4	9265	926.4	8
4	9341	934	1
4	9479	947.8	6
4	9511	951	4
4	9593	959.2	3
4	9595	959.4	1
4	9627	962.6	12
4	9777	977.6	2
4	9857	985.6	2
4	9935	993.4	1
4	9941	994	2
4	10021	1002	10
4	10055	1005.4	10
4	10097	1009.6	1
4	10119	1011.8	1
4	10155	1015.4	2
4	10179	1017.8	1
4	10255	1025.4	3
4	10339	1033.8	3
4	10353	1035.2	1
4	10365	1036.4	4
4	10405	1040.4	1
4	10513	1051.2	2
4	10533	1053.2	1
4	10547	1054.6	7
4	10641	1064	10
4	10681	1068	1
4	10785	1078.4	1
4	10925	1092.4	3
4	10963	1096.2	4
4	11005	1100.4	4
4	11049	1104.8	6
4	11113	1111.2	6
4	11155	1115.4	1
4	11199	1119.8	3
4	11243	1124.2	6
4	11295	1129.4	1
4	11321	1132	2
4	11345	1134.4	1
4	11403	1140.2	1
4	11441	1144	1
4	11443	1144.2	1
4	11491	1149	1
4	11529	1152.8	1
4	11555	1155.4	18
4	11621	1162	3
4	11693	1169.2	1
4	11703	1170.2	6
4	11709	1170.8	1
4	11733	1173.2	1
4	11769	1176.8	2
4	11793	1179.2	1
4	11813	1181.2	2
4	12073	1207.2	1
4	12123	1212.2	1
4	12141	1214	7
4	12171	1217	3
4	12295	1229.4	5
4	12365	1236.4	4
4	12393	1239.2	5
4	12491	1249	1
4	12501	1250	8
4	12519	1251.8	3
4	12563	1256.2	1
4	12581	1258	4
4	12671	1267	7
4	12703	1270.2	2
4	12761	1276	8
4	12865	1286.4	1
4	12873	1287.2	6
4	12909	1290.8	4
4	12911	1291	1
4	12935	1293.4	1
4	13003	1300.2	8
4	13057	1305.6	1
4	13119	1311.8	1
4	13129	1312.8	1
4	13145	1314.4	1
4	13167	1316.6	1
4	13175	1317.4	4
4	13203	1320.2	2
4	13221	1322	4
4	13245	1324.4	1
4	13525	1352.4	2
4	13653	1365.2	4
4	13837	1383.6	4
4	14033	1403.2	1
4	14071	1407	1
4	14101	1410	8
4	14157	1415.6	11
4	14249	1424.8	1
4	14323	1432.2	1
4	14355	1435.4	3
4	14361	1436	1
4	14367	1436.6	1
4	14381	1438	4
4	14419	1441.8	1
4	14563	1456.2	4
4	14637	1463.6	1
4	14789	1478.8	1
4	14843	1484.2	1
4	14889	1488.8	2
4	14917	1491.6	1
4	14939	1493.8	1
4	14997	1499.6	1
4	15033	1503.2	1
4	15075	1507.4	6
4	15157	1515.6	4
4	15207	1520.6	5
4	15209	1520.8	1
4	15373	1537.2	1
4	15393	1539.2	2
4	15405	1540.4	7
4	15411	1541	1
4	15571	1557	2
4	15635	1563.4	4
4	15717	1571.6	1
4	15737	1573.6	6
4	15803	1580.2	2
4	15817	1581.6	3
4	15851	1585	1
4	15921	1592	1
4	15983	1598.2	1
4	15985	1598.4	1
4	16081	1608	28
4	16307	1630.6	10
4	16329	1632.8	1
4	16349	1634.8	1
4	16367	1636.6	2
4	16369	1636.8	1
4	16377	1637.6	1
4	16457	1645.6	1
4	16479	1647.8	19
4	16569	1656.8	1
4	16591	1659	6
4	16625	1662.4	4
4	16755	1675.4	2
4	16777	1677.6	8
4	16801	1680	1
4	16869	1686.8	1
4	16943	1694.2	15
4	17015	1701.4	4
4	17099	1709.8	7
4	17131	1713	2
4	17143	1714.2	2
4	17175	1717.4	6
4	17195	1719.4	1
4	17225	1722.4	10
4	17241	1724	1
4	17283	1728.2	1
4	17291	1729	1
4	17461	1746	1
4	17549	1754.8	6
4	17557	1755.6	6
4	17589	1758.8	1
4	17591	1759	1
4	17631	1763	10
4	17681	1768	11
4	17685	1768.4	1
4	17787	1778.6	8
4	17827	1782.6	1
4	17985	1798.4	9
4	18033	1803.2	1
4	18039	1803.8	2
4	18059	1805.8	1
4	18069	1806.8	1
4	18079	1807.8	1
4	18237	1823.6	1
4	18265	1826.4	14
4	18303	1830.2	10
4	18351	1835	1
4	18495	1849.4	1
4	18595	1859.4	2
4	18711	1871	4
4	18713	1871.2	1
4	18737	1873.6	1
4	18811	1881	22
4	18919	1891.8	10
4	18975	1897.4	5
4	19001	1900	1
4	19023	1902.2	1
4	19161	1916	8
4	19163	1916.2	1
4	19195	1919.4	17
4	19253	1925.2	1
4	19289	1928.8	4
4	19309	1930.8	1
4	19349	1934.8	1
4	19365	1936.4	5
4	19427	1942.6	2
4	19453	1945.2	2
4	19509	1950.8	7
4	19521	1952	2
4	19571	1957	8
4	19585	1958.4	7
4	19685	1968.4	4
4	19723	1972.2	7
4	19763	1976.2	7
4	19775	1977.4	1
4	19797	1979.6	6
4	19999	1999.8	7
4	20067	2006.6	1
4	20145	2014.4	1
4	20255	2025.4	1
4	20315	2031.4	2
4	20349	2034.8	6
4	20393	2039.2	1
4	20403	2040.2	1
4	20405	2040.4	1
4	20437	2043.6	4
4	20497	2049.6	16
4	20501	2050	1
4	20601	2060	3
5	18	1.7	17
5	76	7.5	2
5	78	7.7	1
5	108	10.7	29
5	236	23.5	21
5	336	33.5	6
5	350	34.9	3
5	366	36.5	6
5	428	42.7	6
5	436	43.5	6
5	446	44.5	6
5	504	50.3	56
5	558	55.7	9
5	686	68.5	3
5	716	71.5	21
5	788	78.7	2
5	884	88.3	78
5	888	88.7	2
5	924	92.3	19
5	1000	99.9	3
5	1478	147.7	49
5	1526	152.5	17
5	1580	157.9	9
5	1628	162.7	8
5	1670	166.9	20
5	1734	173.3	27
5	1850	184.9	11
5	1884	188.3	22
5	1924	192.3	1
5	1956	195.5	9
5	2024	202.3	1
5	2106	210.5	42
5	2138	213.7	9
5	2222	222.1	54
5	2242	224.1	12
5	2290	228.9	5
5	2346	234.5	7
5	2388	238.7	9
5	2426	242.5	1
5	2492	249.1	4
5	2534	253.3	9
5	2566	256.5	10
5	2598	259.7	13
5	2614	261.3	2
5	2662	266.1	26
5	2886	288.5	31
5	2938	293.7	9
5	3068	306.7	54
5	3144	314.3	2
5	3170	316.9	18
5	3192	319.1	15
5	3204	320.3	4
5	3304	330.3	6
5	3390	338.9	29
5	3394	339.3	3
5	3402	340.1	7
5	3422	342.1	18
5	3440	343.9	6
5	3464	346.3	6
5	3528	352.7	38
5	3550	354.9	17
5	3590	358.9	15
5	3604	360.3	3
5	3606	360.5	1
5	3756	375.5	32
5	3914	391.3	1
5	3928	392.7	5
5	3958	395.7	2
5	4072	407.1	43
5	4108	410.7	2
5	4130	412.9	1
5	4136	413.5	2
5	4212	421.1	18
5	4258	425.7	14
5	4372	437.1	35
5	4532	453.1	4
5	4586	458.5	4
5	4694	469.3	24
5	4704	470.3	6
5	4794	479.3	29
5	4856	485.5	8
5	4888	488.7	11
5	5034	503.3	3
5	5096	509.5	8
5	5142	514.1	4
5	5158	515.7	5
5	5278	527.7	30
5	5386	538.5	25
5	5480	547.9	10
5	5560	555.9	26
5	5578	557.7	14
5	5594	559.3	4
5	5674	567.3	10
5	5714	571.3	27
5	5738	573.7	9
5	5782	578.1	9
5	5802	580.1	1
5	5958	595.7	1